----- GAMESS execution script 'rungms' -----
This job is running on host chemcompute-node-2.novalocal
under operating system Linux at Wed Dec 22 06:31:59 UTC 2021
SLURM has assigned the following compute nodes to this run:
chemcompute-node-2
Available scratch disk space (Kbyte units) at beginning of the job is
Filesystem     1K-blocks    Used Available Use% Mounted on
/dev/sda1      125817836 9512324 116305512   8% /
GAMESS temporary binary files will be written to /scratch/330497
GAMESS supplementary output files will be written to /data/slurm/368482
Copying input file 368482.inp to your run's scratch directory...
The generated host list is
chemcompute-node-2.novalocal

 Distributed Data Interface kickoff program.
 Initiating 1 compute processes on 1 nodes to run the following command:
 /data/gamess-2019R1-ddi/gamess.00.x 368482 

          ******************************************************
          *         GAMESS VERSION = 30 JUN 2019 (R1)          *
          *             FROM IOWA STATE UNIVERSITY             *
          * M.W.SCHMIDT, K.K.BALDRIDGE, J.A.BOATZ, S.T.ELBERT, *
          *   M.S.GORDON, J.H.JENSEN, S.KOSEKI, N.MATSUNAGA,   *
          *          K.A.NGUYEN, S.J.SU, T.L.WINDUS,           *
          *       TOGETHER WITH M.DUPUIS, J.A.MONTGOMERY       *
          *         J.COMPUT.CHEM.  14, 1347-1363(1993)        *
          **************** 64 BIT LINUX VERSION ****************

  SINCE 1993, STUDENTS AND POSTDOCS WORKING AT IOWA STATE UNIVERSITY
  AND ALSO IN THEIR VARIOUS JOBS AFTER LEAVING ISU HAVE MADE IMPORTANT
  CONTRIBUTIONS TO THE CODE:
     IVANA ADAMOVIC, CHRISTINE AIKENS, YURI ALEXEEV, POOJA ARORA,
     ANDREY ASADCHEV, ROB BELL, PRADIPTA BANDYOPADHYAY, JONATHAN BENTZ,
     COLLEEN BERTONI, BRETT BODE, KURT BRORSEN, CALEB CARLIN, GALINA CHABAN,
     WEI CHEN, CHEOL HO CHOI, PAUL DAY, ALBERT DEFUSCO, NUWAN DESILVA,
     TIM DUDLEY, DMITRI FEDOROV, ALEX FINDLATER, GRAHAM FLETCHER, 
     MARK FREITAG, KURT GLAESEMANN, ANASTASIA GUNINA,
     DAN KEMP, GRANT MERRILL, NORIYUKI MINEZAWA, JONATHAN MULLIN,
     TAKESHI NAGATA, SEAN NEDD, HEATHER NETZLOFF, BOSILJKA NJEGIC, RYAN OLSON,
     MIKE PAK, BUU PHAM,
     SPENCER PRUITT, LUKE ROSKOP, JIM SHOEMAKER, LYUDMILA SLIPCHENKO,
     TONY SMITH, SAROM SOK LEANG, JIE SONG, TETSUYA TAKETSUGU, SIMON WEBB,
     PENG XU, SOOHAENG YOO, FEDERICO ZAHARIEV

  ADDITIONAL CODE HAS BEEN PROVIDED BY COLLABORATORS IN OTHER GROUPS:
     IOWA STATE UNIVERSITY:
          JOE IVANIC, AARON WEST, LAIMUTIS BYTAUTAS, KLAUS RUEDENBERG
     UNIVERSITY OF TOKYO: KIMIHIKO HIRAO, TAKAHITO NAKAJIMA,
          TAKAO TSUNEDA, MUNEAKI KAMIYA, SUSUMU YANAGISAWA,
          KIYOSHI YAGI, MAHITO CHIBA, SEIKEN TOKURA, NAOAKI KAWAKAMI
     UNIVERSITY OF AARHUS: FRANK JENSEN
     UNIVERSITY OF IOWA: VISVALDAS KAIRYS, HUI LI
     NATIONAL INST. OF STANDARDS AND TECHNOLOGY: WALT STEVENS, DAVID GARMER
     UNIVERSITY OF PISA: BENEDETTA MENNUCCI, JACOPO TOMASI
     UNIVERSITY OF MEMPHIS: HENRY KURTZ, PRAKASHAN KORAMBATH
     UNIVERSITY OF ALBERTA: TOBY ZENG, MARIUSZ KLOBUKOWSKI
     UNIVERSITY OF NEW ENGLAND: MARK SPACKMAN
     MIE UNIVERSITY: HIROAKI UMEDA
     NAT. INST. OF ADVANCED INDUSTRIAL SCIENCE AND TECHNOLOGY: KAZUO KITAURA
     MICHIGAN STATE UNIVERSITY:
          KAROL KOWALSKI, MARTA WLOCH, JEFFREY GOUR, JESSE LUTZ,
          WEI LI, JUN SHEN, J. EMILIANO DEUSTUA, PIOTR PIECUCH
     UNIVERSITY OF MINNESOTA:
          YINAN SHU
     UNIVERSITY OF SILESIA: MONIKA MUSIAL, STANISLAW KUCHARSKI
     FACULTES UNIVERSITAIRES NOTRE-DAME DE LA PAIX:
          OLIVIER QUINET, BENOIT CHAMPAGNE
     UNIVERSITY OF CALIFORNIA - SANTA BARBARA: BERNARD KIRTMAN
     INSTITUTE FOR MOLECULAR SCIENCE:
          KAZUYA ISHIMURA, MICHIO KATOUDA, AND SHIGERU NAGASE
     UNIVERSITY OF NOTRE DAME: ANNA POMOGAEVA, DAN CHIPMAN
     KYUSHU UNIVERSITY:
          HARUYUKI NAKANO,
          FENG LONG GU, JACEK KORCHOWIEC, MARCIN MAKOWSKI, AND YURIKO AOKI,
          HIROTOSHI MORI AND EISAKU MIYOSHI
     PENNSYLVANIA STATE UNIVERSITY:
          TZVETELIN IORDANOV, CHET SWALINA, JONATHAN SKONE,
          SHARON HAMMES-SCHIFFER
     WASEDA UNIVERSITY:
          MASATO KOBAYASHI, TOMOKO AKAMA, TSUGUKI TOUMA,
          TAKESHI YOSHIKAWA, YASUHIRO IKABATA, JUNJI SEINO,
          YUYA NAKAJIMA, HIROMI NAKAI
     NANJING UNIVERSITY: SHUHUA LI
     UNIVERSITY OF NEBRASKA:
          PEIFENG SU, DEJUN SI, NANDUN THELLAMUREGE, YALI WANG, HUI LI
     UNIVERSITY OF ZURICH: ROBERTO PEVERATI, KIM BALDRIDGE
     N. COPERNICUS UNIVERSITY AND JACKSON STATE UNIVERSITY:
          MARIA BARYSZ
     UNIVERSITY OF COPENHAGEN: Jimmy Kromann, CASPER STEINMANN
     TOKYO INSTITUTE OF TECHNOLOGY: HIROYA NAKATA
     NAGOYA UNIVERSITY: YOSHIO NISHIMOTO, STEPHAN IRLE
     MOSCOW STATE UNIVERSITY: VLADIMIR MIRONOV
     A.N.NESMEYANOV INSTITUTE OF ORGANOELEMENT COMPOUNDS OF RUSSIAN ACADEMY OF SCIENCES:
          IGOR S. GERASIMOV

 EXECUTION OF GAMESS BEGUN Wed Dec 22 06:31:59 2021

            ECHO OF THE FIRST FEW INPUT CARDS -
 INPUT CARD>!File created by the GAMESS Input Deck Generator Plugin for Avogadro            
 INPUT CARD> $BASIS GBASIS=STO NGAUSS=3 $END                                                
 INPUT CARD> $CONTRL SCFTYP=RHF RUNTYP=SADPOINT NZVAR=1 mult=1  ICHARG=0 $END               
 INPUT CARD> $STATPT hssend=.t. OPTTOL=0.0005 NSTEP=50 $END                                 
 INPUT CARD> $STATPT HESS=calc ihrep=5 $END                                                 
 INPUT CARD> $FORCE nvib=2 $END                                                             
 INPUT CARD> $ZMAT DLC=.t. auto=.t. nonvdw(1)=2,7 $END                                      
 INPUT CARD>!$ZMAT IFZMAT(1)=1,2,13 fvalue(1)=2.01 $END                                     
 INPUT CARD>                                                                                
 INPUT CARD> $DATA                                                                          
 INPUT CARD>Title                                                                           
 INPUT CARD>C1                                                                              
 INPUT CARD>C     6.0    -3.88998485    -0.22537115    -0.23956929                          
 INPUT CARD>N     7.0    -2.66725445     0.41976401    -0.01613721                          
 INPUT CARD>H     1.0    -1.86354840    -0.06886484    -0.44757867                          
 INPUT CARD>Cl    17.0    -5.26587915     0.63814306     0.47002229                         
 INPUT CARD>H     1.0    -3.86983061    -1.28076398     0.03050900                          
 INPUT CARD>H     1.0    -2.65835786     1.42301142    -0.27000600                          
 INPUT CARD>H     1.0    -1.84503543     0.66438949     1.79054868                          
 INPUT CARD> $END                                                                           
    1000000 WORDS OF MEMORY AVAILABLE

     BASIS OPTIONS
     -------------
     GBASIS=STO          IGAUSS=       3      POLAR=NONE    
     NDFUNC=       0     NFFUNC=       0     DIFFSP=       F
     NPFUNC=       0      DIFFS=       F     BASNAM=        


     RUN TITLE
     ---------
 Title                                                                           

 THE POINT GROUP OF THE MOLECULE IS C1      
 THE ORDER OF THE PRINCIPAL AXIS IS     0

 ATOM      ATOMIC                      COORDINATES (BOHR)
           CHARGE         X                   Y                   Z
 C           6.0    -7.3510054629       -0.4258897190       -0.4527203132
 N           7.0    -5.0403800500        0.7932389584       -0.0304949051
 H           1.0    -3.5215958409       -0.1301356778       -0.8458010442
 CL         17.0    -9.9510686780        1.2059155244        0.8882133362
 H           1.0    -7.3129194718       -2.4202929771        0.0576536502
 H           1.0    -5.0235679327        2.6891016612       -0.5102373550
 H           1.0    -3.4866114003        1.2555140852        3.3836463729

          INTERNUCLEAR DISTANCES (ANGS.)
          ------------------------------

                1 C          2 N          3 H          4 CL         5 H     

   1 C       0.0000000    1.4004253 *  2.0430876 *  1.7726427 *  1.0895882 *
   2 N       1.4004253 *  0.0000000    1.0348156 *  2.6527139 *  2.0833052 *
   3 H       2.0430876 *  1.0348156 *  0.0000000    3.5941211    2.3921613 *
   4 CL      1.7726427 *  2.6527139 *  3.5941211    0.0000000    2.4133644 *
   5 H       1.0895882 *  2.0833052 *  2.3921613 *  2.4133644 *  0.0000000  
   6 H       2.0579107 *  1.0349077 *  1.6996908 *  2.8218482 *  2.9779820 *
   7 H       3.0157704    1.9999999 *  2.3552534 *  3.6669675    3.3137829  

                6 H          7 H     

   1 C       2.0579107 *  3.0157704  
   2 N       1.0349077 *  1.9999999 *
   3 H       1.6996908 *  2.3552534 *
   4 CL      2.8218482 *  3.6669675  
   5 H       2.9779820 *  3.3137829  
   6 H       0.0000000    2.3415564 *
   7 H       2.3415564 *  0.0000000  

  * ... LESS THAN  3.000


     ATOMIC BASIS SET
     ----------------
 THE CONTRACTED PRIMITIVE FUNCTIONS HAVE BEEN UNNORMALIZED
 THE CONTRACTED BASIS FUNCTIONS ARE NOW NORMALIZED TO UNITY

  SHELL TYPE  PRIMITIVE        EXPONENT          CONTRACTION COEFFICIENT(S)

 C         

      1   S       1            71.6168373    0.154328967295
      1   S       2            13.0450963    0.535328142282
      1   S       3             3.5305122    0.444634542185

      2   L       4             2.9412494   -0.099967229187    0.155916274999
      2   L       5             0.6834831    0.399512826089    0.607683718598
      2   L       6             0.2222899    0.700115468880    0.391957393099

 N         

      3   S       7            99.1061690    0.154328967295
      3   S       8            18.0523124    0.535328142282
      3   S       9             4.8856602    0.444634542185

      4   L      10             3.7804559   -0.099967229187    0.155916274999
      4   L      11             0.8784966    0.399512826089    0.607683718598
      4   L      12             0.2857144    0.700115468880    0.391957393099

 H         

      5   S      13             3.4252509    0.154328967295
      5   S      14             0.6239137    0.535328142282
      5   S      15             0.1688554    0.444634542185

 CL        

      6   S      16           601.3456136    0.154328967295
      6   S      17           109.5358542    0.535328142282
      6   S      18            29.6446769    0.444634542185

      7   L      19            38.9604189   -0.099967229187    0.155916274999
      7   L      20             9.0535635    0.399512826089    0.607683718598
      7   L      21             2.9444998    0.700115468880    0.391957393099

      8   L      22             2.2112785   -0.219620369005    0.010587604289
      8   L      23             0.6169411    0.225595433605    0.595167005266
      8   L      24             0.2414666    0.900398426019    0.462001011973

 H         

      9   S      25             3.4252509    0.154328967295
      9   S      26             0.6239137    0.535328142282
      9   S      27             0.1688554    0.444634542185

 H         

     10   S      28             3.4252509    0.154328967295
     10   S      29             0.6239137    0.535328142282
     10   S      30             0.1688554    0.444634542185

 H         

     11   S      31             3.4252509    0.154328967295
     11   S      32             0.6239137    0.535328142282
     11   S      33             0.1688554    0.444634542185

 TOTAL NUMBER OF BASIS SET SHELLS             =   11
 NUMBER OF CARTESIAN GAUSSIAN BASIS FUNCTIONS =   23
 NUMBER OF ELECTRONS                          =   34
 CHARGE OF MOLECULE                           =    0
 SPIN MULTIPLICITY                            =    1
 NUMBER OF OCCUPIED ORBITALS (ALPHA)          =   17
 NUMBER OF OCCUPIED ORBITALS (BETA )          =   17
 TOTAL NUMBER OF ATOMS                        =    7
 THE NUCLEAR REPULSION ENERGY IS      101.1039751226

     $CONTRL OPTIONS
     ---------------
 SCFTYP=RHF          RUNTYP=SADPOINT     EXETYP=RUN     
 MPLEVL=       0     CITYP =NONE         CCTYP =NONE         VBTYP =NONE    
 DFTTYP=NONE         TDDFT =NONE    
 MULT  =       1     ICHARG=       0     NZVAR =       1     COORD =UNIQUE  
 PP    =NONE         RELWFN=NONE         LOCAL =NONE         NUMGRD=       F
 ISPHER=      -1     NOSYM =       0     MAXIT =      30     UNITS =ANGS    
 PLTORB=       F     MOLPLT=       F     AIMPAC=       F     FRIEND=        
 NPRINT=       7     IREST =       0     GEOM  =INPUT   
 NORMF =       0     NORMP =       0     ITOL  =      20     ICUT  =       9
 INTTYP=BEST         GRDTYP=BEST         QMTTOL= 1.0E-06

     $SYSTEM OPTIONS
     ---------------
  REPLICATED MEMORY=     1000000 WORDS (ON EVERY NODE).
 DISTRIBUTED MEMDDI=           0 MILLION WORDS IN AGGREGATE,
 MEMDDI DISTRIBUTED OVER   1 PROCESSORS IS           0 WORDS/PROCESSOR.
 TOTAL MEMORY REQUESTED ON EACH PROCESSOR=     1000000 WORDS.
 TIMLIM=      525600.00 MINUTES, OR     365.0 DAYS.
 PARALL= F  BALTYP=  DLB     KDIAG=    0  COREFL= F
 MXSEQ2=     300 MXSEQ3=     150  mem10=         0

          ----------------
          PROPERTIES INPUT
          ----------------

     MOMENTS            FIELD           POTENTIAL          DENSITY
 IEMOM =       1   IEFLD =       0   IEPOT =       0   IEDEN =       0
 WHERE =COMASS     WHERE =NUCLEI     WHERE =NUCLEI     WHERE =NUCLEI  
 OUTPUT=BOTH       OUTPUT=BOTH       OUTPUT=BOTH       OUTPUT=BOTH    
 IEMINT=       0   IEFINT=       0                     IEDINT=       0
                                                       MORB  =       0
          EXTRAPOLATION IN EFFECT
          SOSCF IN EFFECT
 ORBITAL PRINTING OPTION: NPREO=     1    23     2     1

     -------------------------------
     INTEGRAL TRANSFORMATION OPTIONS
     -------------------------------
     NWORD  =            0
     CUTOFF = 1.0E-09     MPTRAN =       0
     DIRTRF =       F     AOINTS =DUP     

          ----------------------
          INTEGRAL INPUT OPTIONS
          ----------------------
 NOPK  =       1 NORDER=       0 SCHWRZ=       T


 -----------------------------------------------
  STATISTICS ON AUTOMATIC COORDINATE GENERATION 
 -----------------------------------------------
  NUMBER OF USER SPECIFIED BONDS                             1
  NUMBER OF BONDS                                            6
  NUMBER OF ANGLES                                           9
  NUMBER OF TORSIONS                                         6
  NUMBER OF EXTRA COORD.                                     0
  NUMBER OF EXTRA COORD. FOR CONSTRAINTS                     0
  NUMBER OF CONSTRAINED COORD.                               0

  TOTAL NUMBER OF PRIMITIVES                                21
 -----------------------------------------------

   --- ENCODED Z MATRIX ---
 COORD  TYPE   I   J   K   L   M   N
    1      1    1   4
    2      1    1   2
    3      1    1   5
    4      1    2   7
    5      1    2   6
    6      1    2   3
    7      2    1   2   3
    8      2    1   2   6
    9      2    1   2   7
   10      2    2   1   4
   11      2    2   1   5
   12      2    3   2   7
   13      2    3   2   6
   14      2    4   1   5
   15      2    6   2   7
   16      3    3   2   1   4
   17      3    3   2   1   5
   18      3    4   1   2   6
   19      3    4   1   2   7
   20      3    5   1   2   7
   21      3    5   1   2   6

          INDEP./SYM. INTERNAL COORDINATES
          --------------------------------
 CRD  1=   0.2723 (  2) -0.1728 (  7)  0.5217 (  9)  0.6188 ( 10) -0.2188 ( 12)
          -0.2369 ( 14) -0.2118 ( 15)  0.1349 ( 16)  0.1971 ( 19) -0.1344 ( 21)
 CRD  2=   0.1148 (  2)  0.1049 (  7) -0.2943 (  8)  0.4846 (  9) -0.4879 ( 10)
           0.5072 ( 11) -0.2098 ( 12) -0.1751 ( 15) -0.1791 ( 20)
 CRD  3=  -0.5226 (  2) -0.1595 (  6) -0.3040 (  7) -0.1780 (  8)  0.3306 (  9)
          -0.1107 ( 10) -0.4224 ( 11)  0.2932 ( 13)  0.3727 ( 14)  0.1301 ( 19)
 CRD  4=   0.1099 (  6)  0.4938 (  7) -0.4829 (  8)  0.1342 ( 10) -0.3592 ( 12)
           0.4391 ( 15)  0.1418 ( 16)  0.1299 ( 18)  0.2454 ( 19)  0.1786 ( 20)
 CRD  5=  -0.1821 (  2) -0.4991 (  3) -0.3437 (  5)  0.3566 (  6) -0.2639 (  8)
           0.1944 ( 10)  0.1914 ( 12)  0.1306 ( 13) -0.2203 ( 14) -0.3976 ( 19)
          -0.2782 ( 20)
 CRD  6=  -0.3565 (  1)  0.4199 (  4)  0.3866 (  5) -0.2923 (  7) -0.1967 (  8)
           0.3116 ( 11)  0.1809 ( 12)  0.2157 ( 13) -0.2195 ( 14)  0.3405 ( 15)
           0.1502 ( 19)  0.1217 ( 20) -0.1086 ( 21)
 CRD  7=  -0.4119 (  1) -0.1952 (  2) -0.3244 (  3) -0.3858 (  4) -0.4140 (  6)
           0.1274 (  7)  0.1379 ( 11) -0.2926 ( 12) -0.2511 ( 14) -0.2943 ( 16)
          -0.1915 ( 18)  0.1793 ( 20)
 CRD  8=  -0.1418 (  1)  0.3017 (  4) -0.5562 (  5) -0.4275 (  6)  0.1939 ( 12)
          -0.3399 ( 13)  0.3577 ( 16)  0.2689 ( 17)
 CRD  9=   0.3882 (  1)  0.1448 (  2) -0.1113 (  3)  0.3860 (  4) -0.2717 (  6)
          -0.1421 ( 11) -0.1471 ( 12)  0.1998 ( 15) -0.2961 ( 16) -0.2085 ( 17)
          -0.4434 ( 18) -0.1493 ( 19) -0.3559 ( 21)
 CRD 10=   0.4143 (  1) -0.3461 (  2)  0.2463 (  3) -0.3986 (  4) -0.1854 (  6)
          -0.1099 (  7) -0.1180 (  8)  0.1853 ( 10)  0.3479 ( 11)  0.1318 ( 12)
           0.1137 ( 13) -0.1207 ( 14)  0.1574 ( 15) -0.2224 ( 17) -0.2307 ( 20)
          -0.2668 ( 21)
 CRD 11=  -0.1913 (  1)  0.6722 (  3) -0.4021 (  5)  0.1185 (  6)  0.2055 ( 13)
          -0.1991 ( 14) -0.3363 ( 16) -0.1830 ( 18) -0.1530 ( 19)  0.1473 ( 20)
           0.1172 ( 21)
 CRD 12=  -0.4018 (  1) -0.1287 (  2)  0.4678 (  6)  0.1451 (  8) -0.2976 ( 13)
           0.2370 ( 14) -0.2493 ( 17) -0.1620 ( 18)  0.1464 ( 19) -0.1881 ( 20)
          -0.4965 ( 21)
 CRD 13=  -0.1667 (  1)  0.6259 (  2) -0.1745 (  3) -0.3303 (  4) -0.2969 (  5)
          -0.1010 (  6) -0.2586 (  7) -0.1636 (  8) -0.1126 (  9)  0.1751 ( 12)
           0.2666 ( 13)  0.1829 ( 14)  0.2337 ( 15) -0.1075 ( 17)  0.1015 ( 19)
          -0.1112 ( 21)
 CRD 14=  -0.2819 (  1)  0.2472 (  3) -0.1487 (  4)  0.3682 (  5) -0.2926 (  6)
           0.2101 (  7) -0.3182 (  8)  0.1937 ( 10) -0.2932 ( 11)  0.1654 ( 12)
           0.1229 ( 16)  0.1265 ( 17) -0.3643 ( 19) -0.3607 ( 20)
 CRD 15=   0.1828 (  1) -0.3414 (  4)  0.2086 (  6) -0.1931 (  7)  0.2383 (  9)
          -0.1461 ( 10)  0.1316 ( 12) -0.2361 ( 13) -0.1449 ( 14)  0.1647 ( 15)
           0.1372 ( 16)  0.4993 ( 17) -0.4351 ( 18)  0.3013 ( 20)

 THE DETERMINANT OF THE G MATRIX IS 10**(    -6)


                     --------------------
                     INTERNAL COORDINATES
                     --------------------

                 - - ATOMS - -         COORDINATE      COORDINATE
 NO.   TYPE    I  J  K  L  M  N        (BOHR,RAD)       (ANG,DEG)
 ----------------------------------------------------------------
   1 STRETCH   1  4                     3.3498090       1.7726427
   2 STRETCH   1  2                     2.6464200       1.4004253
   3 STRETCH   1  5                     2.0590232       1.0895882
   4 STRETCH   2  7                     3.7794518       1.9999999
   5 STRETCH   2  6                     1.9556919       1.0349077
   6 STRETCH   2  3                     1.9555179       1.0348156
   7 BEND      1  2  3                  1.9758575     113.2082947
   8 BEND      1  2  6                  1.9986799     114.5159222
   9 BEND      1  2  7                  2.1644773     124.0154138
  10 BEND      2  1  4                  1.9707989     112.9184602
  11 BEND      2  1  5                  1.9719887     112.9866277
  12 BEND      3  2  7                  1.6861390      96.6086496
  13 BEND      3  2  6                  1.9270792     110.4135063
  14 BEND      4  1  5                  1.9681498     112.7666767
  15 BEND      6  2  7                  1.6704514      95.7098148
  16 TORSION   3  2  1  4              -3.1179203    -178.6436743
  17 TORSION   3  2  1  5               0.9055092      51.8818559
  18 TORSION   4  1  2  6              -0.8877105     -50.8620644
  19 TORSION   4  1  2  7               1.1383706      65.2238334
  20 TORSION   5  1  2  7              -1.1213852     -64.2506364
  21 TORSION   5  1  2  6               3.1357190     179.6634657

     ------------------------------------------
     THE POINT GROUP IS C1 , NAXIS= 0, ORDER= 1
     ------------------------------------------

     DIMENSIONS OF THE SYMMETRY SUBSPACES ARE
 A   =   23

 ..... DONE SETTING UP THE RUN .....
 STEP CPU TIME =     0.09 TOTAL CPU TIME =          0.1 (      0.0 MIN)
 TOTAL WALL CLOCK TIME=          0.1 SECONDS, CPU UTILIZATION IS    69.23%


          -----------------------------
          STATIONARY POINT LOCATION RUN
          -----------------------------

 OBTAINING INITIAL HESSIAN, HESS=CALC    

     ---------------------------------
     HESSIAN MATRIX CONTROL PARAMETERS
     ---------------------------------
     METHOD=ANALYTIC   NVIB  =       2   VIBSIZ= 0.01000
     RDHESS=       F   PURIFY=       F   PRTIFC=       F
     VIBANL=       F   DECOMP=       F   PROJCT=       F
     SCLFAC= 1.00000   PRTSCN=       F   NPRT  =       0
     PULCOR=       F   NPUN  =       0   REDOVB=       T
     HSSTYP=GENERAL 
 Old integral subroutine is used

     ------------------------------
     CPHF RESPONSE SOLUTION OPTIONS
     ------------------------------
     POLAR  =       F     NWORD  =       0
     CPHF   =AO      

          ********************
          1 ELECTRON INTEGRALS
          ********************
 ...... END OF ONE-ELECTRON INTEGRALS ......
 STEP CPU TIME =     0.02 TOTAL CPU TIME =          0.1 (      0.0 MIN)
 TOTAL WALL CLOCK TIME=          0.2 SECONDS, CPU UTILIZATION IS    73.33%

          -------------
          GUESS OPTIONS
          -------------
          GUESS =HUCKEL            NORB  =       0          NORDER=       0
          MIX   =       F          PRTMO =       F          PUNMO =       F
          TOLZ  = 1.0E-08          TOLE  = 1.0E-05
          SYMDEN=       F          PURIFY=       F

 INITIAL GUESS ORBITALS GENERATED BY HUCKEL   ROUTINE.
 HUCKEL GUESS REQUIRES     10848 WORDS.

 SYMMETRIES FOR INITIAL GUESS ORBITALS FOLLOW.   BOTH SET(S).
    17 ORBITALS ARE OCCUPIED (    7 CORE ORBITALS).
     8=A        9=A       10=A       11=A       12=A       13=A       14=A   
    15=A       16=A       17=A       18=A       19=A       20=A       21=A   
    22=A       23=A   
 ...... END OF INITIAL ORBITAL SELECTION ......
 STEP CPU TIME =     0.03 TOTAL CPU TIME =          0.1 (      0.0 MIN)
 TOTAL WALL CLOCK TIME=          0.2 SECONDS, CPU UTILIZATION IS    87.50%

                    ----------------------
                    AO INTEGRAL TECHNOLOGY
                    ----------------------
     S,P,L SHELL ROTATED AXIS INTEGRALS, REPROGRAMMED BY
        KAZUYA ISHIMURA (IMS) AND JOSE SIERRA (SYNSTAR).
     S,P,D,L SHELL ROTATED AXIS INTEGRALS PROGRAMMED BY
        KAZUYA ISHIMURA (INSTITUTE FOR MOLECULAR SCIENCE).
     S,P,D,F,G SHELL TO TOTAL QUARTET ANGULAR MOMENTUM SUM 5,
        ERIC PROGRAM BY GRAHAM FLETCHER (ELORET AND NASA ADVANCED
        SUPERCOMPUTING DIVISION, AMES RESEARCH CENTER).
     S,P,D,F,G,L SHELL GENERAL RYS QUADRATURE PROGRAMMED BY
        MICHEL DUPUIS (PACIFIC NORTHWEST NATIONAL LABORATORY).

          --------------------
          2 ELECTRON INTEGRALS
          --------------------

 THE -PK- OPTION IS OFF, THE INTEGRALS ARE NOT IN SUPERMATRIX FORM.
 STORING   15000 INTEGRALS/RECORD ON DISK, USING 12 BYTES/INTEGRAL.
 TWO ELECTRON INTEGRAL EVALUATION REQUIRES   89422 WORDS OF MEMORY.
 SCHWARZ INEQUALITY OVERHEAD:       271 INTEGRALS, T=        0.00
 II,JST,KST,LST =  1  1  1  1 NREC =         1 INTLOC =    1
 II,JST,KST,LST =  2  1  1  1 NREC =         1 INTLOC =    2
 II,JST,KST,LST =  3  1  1  1 NREC =         1 INTLOC =   34
 II,JST,KST,LST =  4  1  1  1 NREC =         1 INTLOC =  142
 II,JST,KST,LST =  5  1  1  1 NREC =         1 INTLOC = 1361
 II,JST,KST,LST =  6  1  1  1 NREC =         1 INTLOC = 2030
 II,JST,KST,LST =  7  1  1  1 NREC =         1 INTLOC = 2731
 II,JST,KST,LST =  8  1  1  1 NREC =         1 INTLOC = 7709
 II,JST,KST,LST =  9  1  1  1 NREC =         2 INTLOC = 4045
 II,JST,KST,LST = 10  1  1  1 NREC =         2 INTLOC = 8478
 II,JST,KST,LST = 11  1  1  1 NREC =         2 INTLOC =13588
 SCHWARZ INEQUALITY TEST SKIPPED         247 INTEGRAL BLOCKS.
 TOTAL NUMBER OF NONZERO TWO-ELECTRON INTEGRALS =               34293
          3 INTEGRAL RECORDS WERE STORED ON DISK FILE  8.
  ...... END OF TWO-ELECTRON INTEGRALS .....
 STEP CPU TIME =     0.02 TOTAL CPU TIME =          0.2 (      0.0 MIN)
 TOTAL WALL CLOCK TIME=          0.2 SECONDS, CPU UTILIZATION IS    84.21%

          --------------------------
                 RHF SCF CALCULATION
          --------------------------

     NUCLEAR ENERGY =       101.1039751226
     MAXIT =   30     NPUNCH=    2
     EXTRAP=T  DAMP=F  SHIFT=F  RSTRCT=F  DIIS=F  DEM=F  SOSCF=T
     DENSITY MATRIX CONV=  1.00E-05
     SOSCF WILL OPTIMIZE     102 ORBITAL ROTATIONS, SOGTOL=   0.250
     MEMORY REQUIRED FOR RHF ITERS=     34433 WORDS.

 ITER EX DEM     TOTAL ENERGY        E CHANGE  DENSITY CHANGE     ORB. GRAD
   1  0  0     -547.3047629603  -547.3047629603   1.544632680   0.000000000
          ---------------START SECOND ORDER SCF---------------
   2  1  0     -547.5137693056    -0.2090063453   1.099075686   0.156849479
   3  2  0     -547.6404960024    -0.1267266968   0.473821164   0.101480122
   4  3  0     -547.7100004724    -0.0695044700   0.115349728   0.024185067
   5  4  0     -547.7141804111    -0.0041799387   0.016795904   0.006105221
   6  5  0     -547.7146883642    -0.0005079531   0.015077008   0.002501659
   7  6  0     -547.7148227151    -0.0001343509   0.001997012   0.000528808
   8  7  0     -547.7148252311    -0.0000025159   0.000590643   0.000125177
   9  8  0     -547.7148255760    -0.0000003449   0.000129259   0.000032351
  10  9  0     -547.7148256056    -0.0000000296   0.000057495   0.000014604
  11 10  0     -547.7148256111    -0.0000000055   0.000019898   0.000004573
  12 11  0     -547.7148256117    -0.0000000006   0.000006159   0.000001766
  13 12  0     -547.7148256117    -0.0000000001   0.000000813   0.000000448

          -----------------
          DENSITY CONVERGED
          -----------------
     TIME TO FORM FOCK OPERATORS=       0.0 SECONDS (       0.0 SEC/ITER)
     TIME TO SOLVE SCF EQUATIONS=       0.0 SECONDS (       0.0 SEC/ITER)

 FINAL RHF ENERGY IS     -547.7148256117 AFTER  13 ITERATIONS

          ------------
          EIGENVECTORS
          ------------

                      1          2          3          4          5
                 -103.5968   -15.4974   -11.0421   -10.2958    -7.7382
                     A          A          A          A          A   
    1  C  1  S   -0.000054   0.000459   0.992524   0.001837   0.001394
    2  C  1  S    0.000370  -0.005481   0.032884  -0.007601  -0.010668
    3  C  1  X   -0.000266  -0.003977   0.001669   0.005130   0.006801
    4  C  1  Y    0.000177  -0.002091  -0.000144  -0.003395  -0.004462
    5  C  1  Z    0.000143  -0.000735   0.003919  -0.002735  -0.003716
    6  N  2  S    0.000002   0.993482   0.000413  -0.000013  -0.000012
    7  N  2  S   -0.000031   0.031203  -0.005738   0.000547   0.000601
    8  N  2  X    0.000012  -0.000569   0.003503  -0.000100  -0.000237
    9  N  2  Y   -0.000010  -0.000018   0.001906   0.000111   0.000058
   10  N  2  Z    0.000002  -0.002979   0.000202  -0.000104  -0.000046
   11  H  3  S    0.000008  -0.006220  -0.000481  -0.000169  -0.000189
   12  CL 4  S    0.994488   0.000002   0.000154  -0.376818   0.004359
   13  CL 4  S    0.015791   0.000004  -0.000509   1.052680  -0.012406
   14  CL 4  X    0.000090  -0.000019   0.000384   0.007780   0.775322
   15  CL 4  Y   -0.000054  -0.000008  -0.000223  -0.004476  -0.473476
   16  CL 4  Z   -0.000045   0.000007  -0.000156  -0.003668  -0.387668
   17  CL 4  S   -0.001859   0.000192  -0.004344   0.045989   0.005477
   18  CL 4  X   -0.000178   0.000210  -0.003452   0.004232   0.037724
   19  CL 4  Y    0.000110   0.000038   0.002040  -0.002583  -0.023107
   20  CL 4  Z    0.000091  -0.000059   0.001478  -0.002129  -0.018957
   21  H  5  S    0.000002   0.000262  -0.007083  -0.000104   0.000145
   22  H  6  S    0.000027  -0.006204  -0.000495  -0.000558  -0.000363
   23  H  7  S    0.000002  -0.000882  -0.000104  -0.000034  -0.000017

                      6          7          8          9         10
                   -7.7331    -7.7330    -1.2154    -1.0086    -0.7982
                     A          A          A          A          A   
    1  C  1  S    0.000014   0.000030  -0.096154  -0.082849  -0.160283
    2  C  1  S   -0.000042  -0.000110   0.227364   0.235543   0.501857
    3  C  1  X   -0.002133  -0.000854   0.075858  -0.096182   0.106491
    4  C  1  Y   -0.002491   0.001191   0.047026   0.026762  -0.093223
    5  C  1  Z   -0.000394  -0.002714   0.028266   0.053496   0.052592
    6  N  2  S   -0.000029   0.000014  -0.213000   0.061553   0.033715
    7  N  2  S    0.000873   0.000030   0.723418  -0.226161  -0.135566
    8  N  2  X    0.000021   0.000029  -0.038206  -0.092097  -0.286076
    9  N  2  Y   -0.000376  -0.000338  -0.011342  -0.024595  -0.279939
   10  N  2  Z   -0.000507   0.000092  -0.080975   0.045010   0.055972
   11  H  3  S   -0.000177  -0.000056   0.125691  -0.083355  -0.105288
   12  CL 4  S    0.000099   0.000038   0.012131   0.078028  -0.037903
   13  CL 4  S   -0.000280  -0.000107  -0.040821  -0.258558   0.122885
   14  CL 4  X    0.566371   0.234451  -0.012936  -0.030897  -0.025008
   15  CL 4  Y    0.794904  -0.349318   0.005063   0.018709   0.020613
   16  CL 4  Z    0.161796   0.895457   0.004712   0.013720   0.008706
   17  CL 4  S   -0.000030  -0.000026   0.118056   0.836356  -0.451816
   18  CL 4  X    0.023398   0.009660   0.033958   0.089807   0.073146
   19  CL 4  Y    0.032959  -0.014419  -0.013398  -0.052885  -0.061432
   20  CL 4  Z    0.006744   0.037100  -0.012509  -0.038624  -0.025301
   21  H  5  S   -0.000191   0.000192   0.037403   0.057715   0.233667
   22  H  6  S   -0.000694   0.000229   0.124390  -0.061732  -0.212345
   23  H  7  S   -0.000029  -0.000077   0.013917  -0.008775  -0.021877

                     11         12         13         14         15
                   -0.6979    -0.5857    -0.4981    -0.4540    -0.3711
                     A          A          A          A          A   
    1  C  1  S   -0.022942  -0.050386   0.055140  -0.016120   0.004038
    2  C  1  S    0.079634   0.182353  -0.217199   0.090327  -0.016595
    3  C  1  X    0.007687  -0.273467   0.054261  -0.306328   0.016297
    4  C  1  Y    0.161669  -0.339020  -0.143946   0.296814   0.032130
    5  C  1  Z    0.010329   0.020908   0.361215   0.122133   0.100101
    6  N  2  S   -0.001321   0.030242  -0.050489  -0.002076   0.023519
    7  N  2  S    0.006963  -0.137839   0.246328   0.015915  -0.123295
    8  N  2  X   -0.411169   0.321311   0.043217   0.186431  -0.006487
    9  N  2  Y    0.435446   0.361378  -0.008554  -0.084923   0.018637
   10  N  2  Z    0.078241  -0.040786   0.670411   0.177398  -0.309973
   11  H  3  S   -0.404868   0.030398  -0.107476   0.145223   0.073207
   12  CL 4  S   -0.015074  -0.012035   0.003927  -0.018502  -0.001037
   13  CL 4  S    0.048399   0.037799  -0.012231   0.056715   0.003134
   14  CL 4  X   -0.031786  -0.011541   0.002093  -0.161014  -0.124409
   15  CL 4  Y   -0.002776   0.062495   0.005639   0.074039   0.047517
   16  CL 4  Z    0.010371   0.018540  -0.082232   0.086915  -0.228421
   17  CL 4  S   -0.187311  -0.161932   0.054898  -0.268749  -0.015724
   18  CL 4  X    0.100956   0.032155  -0.002778   0.542262   0.442322
   19  CL 4  Y    0.011866  -0.205671  -0.020887  -0.246186  -0.169042
   20  CL 4  Z   -0.031629  -0.059280   0.282955  -0.292203   0.817442
   21  H  5  S   -0.073476   0.368057   0.086712  -0.243582  -0.026884
   22  H  6  S    0.290397   0.259728  -0.033741  -0.122798   0.033728
   23  H  7  S   -0.006852   0.012290   0.200924   0.074514  -0.142826

                     16         17         18         19         20
                   -0.3609    -0.1464     0.1310     0.4220     0.5345
                     A          A          A          A          A   
    1  C  1  S   -0.009343  -0.066681   0.050827   0.126411   0.031135
    2  C  1  S    0.033576   0.319283  -0.264384  -0.653652  -0.172616
    3  C  1  X    0.005029  -0.070537   0.167633   0.528353  -0.300813
    4  C  1  Y   -0.084872   0.068864  -0.022020  -0.424083   0.000357
    5  C  1  Z   -0.007472  -0.626403   0.496376  -0.447194   0.063885
    6  N  2  S    0.019443   0.014881   0.044283  -0.044599  -0.163720
    7  N  2  S   -0.097663  -0.057484  -0.243261   0.283705   1.107694
    8  N  2  X    0.114464   0.067808  -0.167367   0.052316   0.221669
    9  N  2  Y    0.042597   0.022351  -0.028412  -0.201986   0.323100
   10  N  2  Z    0.030248   0.119804  -0.523599   0.001121  -0.445680
   11  H  3  S    0.040620  -0.052820   0.058264  -0.419991  -0.686058
   12  CL 4  S   -0.000102  -0.001592   0.002770   0.023497  -0.001666
   13  CL 4  S    0.000478   0.005251  -0.008436  -0.066594   0.003992
   14  CL 4  X   -0.131289   0.002373  -0.013674  -0.165036   0.005889
   15  CL 4  Y   -0.248263   0.001344   0.013355   0.099776  -0.022037
   16  CL 4  Z    0.014954  -0.087520   0.057263   0.078177  -0.008180
   17  CL 4  S    0.000736  -0.018792   0.041488   0.417059  -0.037906
   18  CL 4  X    0.472268  -0.005642   0.050513   0.671490  -0.026826
   19  CL 4  Y    0.890234  -0.007312  -0.050250  -0.405790   0.090188
   20  CL 4  Z   -0.054636   0.326045  -0.218273  -0.317968   0.034746
   21  H  5  S    0.158539  -0.097317   0.109267   0.098303   0.150910
   22  H  6  S    0.036210  -0.072739   0.083658   0.117690  -0.957396
   23  H  7  S    0.022410   0.680578   0.701392  -0.024971   0.046977

                     21         22         23
                    0.5951     0.7246     0.7554
                     A          A          A   
    1  C  1  S    0.093878  -0.120090   0.080833
    2  C  1  S   -0.556476   0.726414  -0.538302
    3  C  1  X    0.136114   0.937994  -0.036975
    4  C  1  Y    0.213601   0.342767   0.981198
    5  C  1  Z   -0.254721   0.180416  -0.148539
    6  N  2  S    0.009505   0.072912   0.008785
    7  N  2  S   -0.074654  -0.498350  -0.069700
    8  N  2  X   -0.549081   0.784181   0.312775
    9  N  2  Y    0.661389   0.569382  -0.430860
   10  N  2  Z    0.199504   0.064917   0.011752
   11  H  3  S    0.843260  -0.093019  -0.349455
   12  CL 4  S    0.006424   0.001839  -0.003439
   13  CL 4  S   -0.017812  -0.004851   0.008792
   14  CL 4  X   -0.036363   0.007865   0.024299
   15  CL 4  Y    0.033475   0.022655   0.008636
   16  CL 4  Z    0.017054   0.016784  -0.018330
   17  CL 4  S    0.120121   0.036247  -0.072591
   18  CL 4  X    0.155115  -0.032814  -0.106515
   19  CL 4  Y   -0.139047  -0.095603  -0.033786
   20  CL 4  Z   -0.071370  -0.070178   0.078211
   21  H  5  S    0.575944  -0.110976   1.085359
   22  H  6  S   -0.602666  -0.278000   0.339952
   23  H  7  S   -0.018037  -0.031310  -0.017547
 ...... END OF RHF CALCULATION ......
 STEP CPU TIME =     0.04 TOTAL CPU TIME =          0.2 (      0.0 MIN)
 TOTAL WALL CLOCK TIME=          0.2 SECONDS, CPU UTILIZATION IS    83.33%

     ----------------------------------------------------------------
     PROPERTY VALUES FOR THE RHF   SELF-CONSISTENT FIELD WAVEFUNCTION
     ----------------------------------------------------------------

          -----------------
          ENERGY COMPONENTS
          -----------------

         WAVEFUNCTION NORMALIZATION =       1.0000000000

                ONE ELECTRON ENERGY =    -958.0924385185
                TWO ELECTRON ENERGY =     309.2736377841
           NUCLEAR REPULSION ENERGY =     101.1039751226
                                      ------------------
                       TOTAL ENERGY =    -547.7148256117

 ELECTRON-ELECTRON POTENTIAL ENERGY =     309.2736377841
  NUCLEUS-ELECTRON POTENTIAL ENERGY =   -1497.8758324271
   NUCLEUS-NUCLEUS POTENTIAL ENERGY =     101.1039751226
                                      ------------------
             TOTAL POTENTIAL ENERGY =   -1087.4982195203
               TOTAL KINETIC ENERGY =     539.7833939086
                 VIRIAL RATIO (V/T) =       2.0146937305

          ---------------------------------------
          MULLIKEN AND LOWDIN POPULATION ANALYSES
          ---------------------------------------

     ATOMIC MULLIKEN POPULATION IN EACH MOLECULAR ORBITAL

                      1          2          3          4          5

                  2.000000   2.000000   2.000000   2.000000   2.000000

    1             0.000006  -0.000849   2.002247  -0.001027  -0.000777
    2            -0.000000   2.002389  -0.000810   0.000001   0.000001
    3             0.000000  -0.000767  -0.000008  -0.000000  -0.000000
    4             1.999994   0.000001  -0.000430   2.001029   2.000775
    5             0.000000   0.000003  -0.000991  -0.000001   0.000001
    6             0.000000  -0.000765  -0.000008  -0.000002  -0.000001
    7             0.000000  -0.000012  -0.000000  -0.000000  -0.000000

                      6          7          8          9         10

                  2.000000   2.000000   2.000000   2.000000   2.000000

    1            -0.000039  -0.000037   0.314012   0.280058   0.653105
    2             0.000000   0.000000   1.349159   0.141321   0.564648
    3            -0.000000  -0.000000   0.133551   0.035773   0.036688
    4             2.000040   2.000036   0.052470   1.499948   0.343163
    5             0.000000   0.000000   0.015736   0.023700   0.242108
    6            -0.000001  -0.000000   0.132343   0.018612   0.157786
    7            -0.000000  -0.000000   0.002730   0.000589   0.002502

                     11         12         13         14         15

                  2.000000   2.000000   2.000000   2.000000   2.000000

    1             0.116165   0.682583   0.511497   0.548784   0.032472
    2             1.069289   0.578112   1.134857   0.157633   0.210886
    3             0.469302   0.003432   0.023503   0.039868   0.009017
    4             0.082915   0.158260   0.190449   1.071519   1.693943
    5             0.021372   0.411704   0.018503   0.139669   0.001419
    6             0.240731   0.165088   0.002539   0.026992   0.001948
    7             0.000226   0.000821   0.118652   0.015536   0.050314

                     16         17

                  2.000000   2.000000

    1             0.019175   0.875244
    2             0.033340   0.031002
    3             0.003474   0.002335
    4             1.889023   0.152863
    5             0.050718   0.012473
    6             0.002877   0.004927
    7             0.001392   0.921156

               ----- POPULATIONS IN EACH AO -----
                             MULLIKEN      LOWDIN
              1  C  1  S      1.99344     1.98641
              2  C  1  S      1.26028     1.18689
              3  C  1  X      0.67216     0.75831
              4  C  1  Y      0.88006     0.92522
              5  C  1  Z      1.22668     1.24798
              6  N  2  S      1.99538     1.99166
              7  N  2  S      1.54956     1.32812
              8  N  2  X      1.16054     1.16722
              9  N  2  Y      1.15885     1.16079
             10  N  2  Z      1.40750     1.40140
             11  H  3  S      0.75617     0.82784
             12  CL 4  S      1.99997     1.99988
             13  CL 4  S      1.99878     1.99867
             14  CL 4  X      1.99268     1.98678
             15  CL 4  Y      1.99695     1.99448
             16  CL 4  Z      1.99739     1.99510
             17  CL 4  S      1.95222     1.91268
             18  CL 4  X      1.55109     1.55935
             19  CL 4  Y      1.81347     1.81649
             20  CL 4  Z      1.83344     1.83482
             21  H  5  S      0.93641     0.97263
             22  H  6  S      0.75307     0.82641
             23  H  7  S      1.11391     1.12087

          ----- MULLIKEN ATOMIC OVERLAP POPULATIONS -----
          (OFF-DIAGONAL ELEMENTS NEED TO BE MULTIPLIED BY 2)

             1           2           3           4           5

    1    5.1238463
    2    0.3582018   6.2125546
    3   -0.0272817   0.3362821   0.4823066
    4    0.2363595  -0.0233582   0.0013021  16.9450919
    5    0.3802501  -0.0250919  -0.0022797  -0.0226884   0.6048490
    6   -0.0302637   0.3375513  -0.0279128  -0.0009762   0.0024727
    7   -0.0084919   0.0756880  -0.0062483   0.0002662  -0.0010983

             6           7

    6    0.4803208
    7   -0.0081252   1.0619158

          TOTAL MULLIKEN AND LOWDIN ATOMIC POPULATIONS
       ATOM         MULL.POP.    CHARGE          LOW.POP.     CHARGE
    1 C             6.032620   -0.032620         6.104813   -0.104813
    2 N             7.271828   -0.271828         7.049194   -0.049194
    3 H             0.756168    0.243832         0.827840    0.172160
    4 CL           17.135997   -0.135997        17.098235   -0.098235
    5 H             0.936413    0.063587         0.972631    0.027369
    6 H             0.753067    0.246933         0.826412    0.173588
    7 H             1.113906   -0.113906         1.120874   -0.120874

          -------------------------------
          BOND ORDER AND VALENCE ANALYSIS     BOND ORDER THRESHOLD=0.050
          -------------------------------

                   BOND                       BOND                       BOND
  ATOM PAIR DIST  ORDER      ATOM PAIR DIST  ORDER      ATOM PAIR DIST  ORDER
    1   2  1.400  1.155        1   4  1.773  0.958        1   5  1.090  0.956
    1   7  3.016  0.480        2   3  1.035  0.909        2   6  1.035  0.907
    2   7  2.000  0.444

                       TOTAL       BONDED        FREE
      ATOM            VALENCE     VALENCE     VALENCE
    1 C                 3.566       3.566       0.000
    2 N                 3.457       3.457      -0.000
    3 H                 0.941       0.941       0.000
    4 CL                1.073       1.073       0.000
    5 H                 0.996       0.996       0.000
    6 H                 0.939       0.939      -0.000
    7 H                 0.987       0.987       0.000

          ---------------------
          ELECTROSTATIC MOMENTS
          ---------------------

 POINT   1           X           Y           Z (BOHR)    CHARGE
                -8.096004    0.762603    0.420006        0.00 (A.U.)
         DX          DY          DZ         /D/  (DEBYE)
     2.897307   -0.040487   -1.668144    3.343461
 ...... END OF PROPERTY EVALUATION ......
 STEP CPU TIME =     0.02 TOTAL CPU TIME =          0.2 (      0.0 MIN)
 TOTAL WALL CLOCK TIME=          0.3 SECONDS, CPU UTILIZATION IS    84.62%

     ---------------------------------------------
     1ST AND 2ND INTEGRAL DERIVATIVE CONTRIBUTIONS
     ---------------------------------------------
 ...... END OF 1-ELECTRON GRAD+HESS+FOCKDER ......
 STEP CPU TIME =     0.03 TOTAL CPU TIME =          0.2 (      0.0 MIN)
 TOTAL WALL CLOCK TIME=          0.3 SECONDS, CPU UTILIZATION IS    89.29%

     ----------------------------------------------
     TWO ELECTRON INTEGRAL DERIVATIVE CONTRIBUTIONS
     ----------------------------------------------

      15759 WORDS REQUIRED,    998816 WORDS AVAILABLE
 THE COARSE/FINE SCHWARZ SCREENINGS SKIPPED        223/        33 BLOCKS.
 THE NUMBER OF DERIVATIVE INTEGRAL BLOCKS COMPUTED WAS      1918
 STEP CPU TIME =     0.52 TOTAL CPU TIME =          0.8 (      0.0 MIN)
 TOTAL WALL CLOCK TIME=          0.8 SECONDS, CPU UTILIZATION IS    93.90%
 ...... END OF 2-ELECTRON GRAD+HESS+FOCKDER ......
 STEP CPU TIME =     0.00 TOTAL CPU TIME =          0.8 (      0.0 MIN)
 TOTAL WALL CLOCK TIME=          0.8 SECONDS, CPU UTILIZATION IS    93.90%

     -------------------------------------------
     COUPLED-PERTURBED CLOSED SHELL HARTREE-FOCK
     -------------------------------------------
 THE CPHF HAS     102 INDEPENDENT ORBITAL ROTATIONS.
 SOLVING FOR   21 NUCLEAR RESPONSES AND 0 ELECTRIC FIELD RESPONSES
           -FA- WILL USE     10113 WORDS,
           -TA- WILL USE     18473 WORDS,
          -FCK- WILL USE     52529 WORDS,
 -WXY- AND -YA- WILL USE     54570 WORDS,
               THERE ARE    998816 WORDS OF REPLICATED MEMORY AVAILABLE.
        TIME FOR -FA-   =        0.000
        TIME FOR -TA-   =        0.010
        TIME FOR -FCK-  =        0.010
 PRECONDITIONED CONJUGATE GRADIENT SOLVER     CONV. TOLERANCE=5.00E-05
 ITER    RESPONSE ERROR        IMPROVED
   1       9.45822E-01            21
   2       3.56258E-01            21
   3       8.29706E-02            21
   4       2.57712E-02            21
   5       4.24728E-03            21
   6       1.04143E-03            21
   7       1.97646E-04            21
   8       3.65531E-05            21
 THE CPHF HAS CONVERGED AFTER  8 ITERATIONS.
 IT REQUIRED   168 FOCK-LIKE BUILDS TO FIND THE  21 SYMMETRY UNIQUE RESPONSES.
        TIME FOR -YA-   =        0.030
 ...... DONE WITH CPHF CONTRIBUTIONS ......
 STEP CPU TIME =     0.06 TOTAL CPU TIME =          0.8 (      0.0 MIN)
 TOTAL WALL CLOCK TIME=          0.9 SECONDS, CPU UTILIZATION IS    95.40%

          PARAMETERS CONTROLLING GEOMETRY SEARCH ARE
          METHOD =QA                  UPHESS =POWELL  
          NNEG   =         1          NFRZ   =         0
          NSTEP  =        50          IFOLOW =         1
          HESS   =CALC                RESTAR =         F
          IHREP  =         5          HSSEND =         T
          NPRT   =         0          NPUN   =         0
          OPTTOL = 5.000E-04          RMIN   = 1.500E-03
          RMAX   = 1.000E-01          RLIM   = 7.000E-02
          DXMAX  = 2.000E-01          PURIFY =         F
          MOVIE  =         F          TRUPD  =         T
          TRMAX  = 3.000E-01          TRMIN  = 5.000E-02
          ITBMAT =         5          STPT   =         F
          STSTEP = 1.000E-02          PROJCT=          T

 THE GRADIENT AT THE INITIAL GEOMETRY IS KNOWN.
 PROCEEDING DIRECTLY TO THE GEOMETRY SEARCH...

          NSERCH=  0     ENERGY=    -547.7148256

                                 -----------------------
                                 GRADIENT (HARTREE/BOHR)
                                 -----------------------
        ATOM     ZNUC       DE/DX         DE/DY         DE/DZ
 --------------------------------------------------------------
    1  C            6.0    -0.0000944    -0.0001148     0.0000906
    2  N            7.0    -0.0307461    -0.0088636    -0.0671869
    3  H            1.0    -0.0000210    -0.0000986     0.0000450
    4  CL          17.0    -0.0001967     0.0000370    -0.0002619
    5  H            1.0     0.0000725    -0.0000123    -0.0000620
    6  H            1.0    -0.0000836     0.0000017    -0.0000168
    7  H            1.0     0.0310693     0.0090506     0.0673921


                     --------------------
                     INTERNAL COORDINATES
                     --------------------

                 - - ATOMS - -         COORDINATE        GRADIENT
 NO.   TYPE    I  J  K  L  M  N         (ANG,DEG)     (H/B,H/RAD)
 ----------------------------------------------------------------
   1 SYM.CRD.                           0.6093386       0.0059701
   2 SYM.CRD.                           0.1209276       0.0045148
   3 SYM.CRD.                          -1.3085710       0.0013291
   4 SYM.CRD.                           0.0758947       0.0001734
   5 SYM.CRD.                          -0.4228256       0.0060842
   6 SYM.CRD.                           0.4481419       0.0314437
   7 SYM.CRD.                          -2.2708839      -0.0289216
   8 SYM.CRD.                          -1.2411645       0.0224803
   9 SYM.CRD.                           1.0812022       0.0288406
  10 SYM.CRD.                          -0.6202186      -0.0297600
  11 SYM.CRD.                           0.7091160       0.0062269
  12 SYM.CRD.                          -1.1722895      -0.0058360
  13 SYM.CRD.                          -0.7788900      -0.0245424
  14 SYM.CRD.                          -0.5915382      -0.0111982
  15 SYM.CRD.                          -0.4519920      -0.0254385

 NOTE: CARTESIAN GRADIENTS ARE ALWAYS TAKEN TO TEST CONVERGENCE,
       SO THE FOLLOWING GRADIENTS ARE CARTESIAN.

          MAXIMUM GRADIENT = 0.0673921    RMS GRADIENT = 0.0230187

 NSERCH:   0  E=     -547.7148256117  GRAD. MAX=  0.0673921  R.M.S.=  0.0230187

          FORCE CONSTANT MATRIX NOT UPDATED --- TAKING FIRST STEP
          THE FIRST FEW LOCAL MODES AND EIGENVALUES ARE

  MODE           1           2           3           4           5
         -0.042689    0.015566    0.032999    0.045980    0.078151
  MODE
   1      0.080853    0.030102   -0.016401   -0.023367    0.009620
   2      0.066002   -0.020814   -0.154079    0.011606    0.002130
   3      0.004215   -0.040553   -0.040703   -0.016365   -0.110347
   4     -0.009176   -0.207298    0.091248   -0.158163   -0.570126
   5      0.081970    0.116657   -0.016219    0.199195    0.449697
   6      0.394998   -0.036289    0.243603    0.244013   -0.278728
   7     -0.358861    0.256634    0.139684   -0.379928   -0.048890
   8      0.281847   -0.279944    0.034545    0.435347   -0.100887
   9      0.321189    0.594185    0.472874    0.052712   -0.015991
  10     -0.298093    0.297084   -0.301217    0.199982   -0.195573
  11      0.042719    0.135085    0.349021   -0.289065    0.210108
  12     -0.003356    0.513878   -0.152876    0.297919   -0.335779
  13     -0.346378    0.116853   -0.057846    0.165291   -0.190788
  14     -0.156281    0.080188   -0.120604    0.401588    0.371774
  15     -0.528945   -0.226207    0.638966    0.370491   -0.013596

  MODE           6           7           8           9          10
          0.149993    0.157457    0.193670    0.234433    0.311334
  MODE
   1     -0.020984    0.162018   -0.155930    0.225948   -0.734936
   2     -0.337792   -0.443062   -0.026508    0.729635   -0.004106
   3      0.287393    0.109410    0.492900    0.312404   -0.289157
   4     -0.284507   -0.512618    0.250612   -0.297312   -0.101516
   5      0.062811   -0.388974   -0.137951   -0.119002   -0.098040
   6      0.437873   -0.259460   -0.308188   -0.051070   -0.214219
   7     -0.192518   -0.031018   -0.296797   -0.164791   -0.284982
   8     -0.213731    0.172126   -0.141315   -0.139971   -0.033384
   9     -0.118857   -0.044550    0.203315    0.130985    0.256838
  10      0.189155   -0.239656   -0.419598    0.067211    0.143478
  11      0.189906   -0.156791    0.039644   -0.088063   -0.184113
  12     -0.263659    0.284253    0.064454   -0.083559   -0.184280
  13      0.491533   -0.101945    0.290708    0.029362    0.033860
  14     -0.182530   -0.268807    0.363028   -0.289011   -0.269288
  15     -0.114394    0.077693   -0.087933    0.215109    0.005786
          HESSIAN MODE FOLLOWING SWITCHED ON, FOLLOWING MODE   1
          FOLLOWING MODE  1 WITH EIGENVALUE   -0.04269 AND COMPONENTS
              0.08085  0.06600  0.00421 -0.00918  0.08197  0.39500
             -0.35886  0.28185  0.32119 -0.29809  0.04272 -0.00336
             -0.34638 -0.15628 -0.52895
          TS SEARCH, CORRECT HESSIAN, TRYING PURE NR STEP
               NR STEP HAS LENGTH         =   1.808381
          TRIM/QA LAMBDA FOR     TS MODE  =   0.33123516
          TRIM/QA LAMBDA FOR NON-TS MODES =  -0.33123516
          TRIM/QA STEP HAS LENGTH         =   0.200000
          RADIUS OF STEP TAKEN=   0.20000  CURRENT TRUST RADIUS=   0.20000
          TRANSFORMING DISPLACEMENT FROM INTERNALS TO CARTESIANS
          THE ROOT MEAN SQUARE ERROR IN ITERATION   1 IS   0.00127879
          THE ROOT MEAN SQUARE ERROR IN ITERATION   2 IS   0.00000059
          THE ROOT MEAN SQUARE ERROR IN ITERATION   3 IS   0.00000000

 BEGINNING GEOMETRY SEARCH POINT NSERCH=   1 ...

 COORDINATES OF ALL ATOMS ARE (ANGS)
   ATOM   CHARGE       X              Y              Z
 ------------------------------------------------------------
 C           6.0  -3.8879068602  -0.2195637500  -0.2265658315
 N           7.0  -2.6689367606   0.4175460221  -0.0269143738
 H           1.0  -1.8636902356  -0.0700044396  -0.4530743510
 CL         17.0  -5.2669842463   0.6371658986   0.4683002142
 H           1.0  -3.8785455695  -1.2836789622   0.0051858016
 H           1.0  -2.6551390729   1.4249943267  -0.2569775942
 H           1.0  -1.8024211790   0.6620358437   1.8630023026


                     --------------------
                     INTERNAL COORDINATES
                     --------------------

                 - - ATOMS - -         COORDINATE      COORDINATE
 NO.   TYPE    I  J  K  L  M  N        (BOHR,RAD)       (ANG,DEG)
 ----------------------------------------------------------------
   1 STRETCH   1  4                     3.3372149       1.7659782
   2 STRETCH   1  2                     2.6264184       1.3898409
   3 STRETCH   1  5                     2.0580996       1.0890995
   4 STRETCH   2  7                     3.9559912       2.0934205
   5 STRETCH   2  6                     1.9529855       1.0334755
   6 STRETCH   2  3                     1.9526821       1.0333149
   7 BEND      1  2  3                  1.9909964     114.0756911
   8 BEND      1  2  6                  2.0115171     115.2514396
   9 BEND      1  2  7                  2.1486861     123.1106422
  10 BEND      2  1  4                  1.9888666     113.9536595
  11 BEND      2  1  5                  1.9930119     114.1911729
  12 BEND      3  2  7                  1.6758588      96.0196352
  13 BEND      3  2  6                  1.9366380     110.9611819
  14 BEND      4  1  5                  1.9790265     113.3898676
  15 BEND      6  2  7                  1.6524835      94.6803284
  16 TORSION   3  2  1  4              -3.1162949    -178.5505470
  17 TORSION   3  2  1  5               0.8540519      48.9335705
  18 TORSION   4  1  2  6              -0.8458336     -48.4626954
  19 TORSION   4  1  2  7               1.1532395      66.0757541
  20 TORSION   5  1  2  7              -1.1595990     -66.4401283
  21 TORSION   5  1  2  6               3.1245132     179.0214221

          INTERNUCLEAR DISTANCES (ANGS.)
          ------------------------------

                1 C          2 N          3 H          4 CL         5 H     

   1 C       0.0000000    1.3898409 *  2.0423337 *  1.7659782 *  1.0890995 *
   2 N       1.3898409 *  0.0000000    1.0333149 *  2.6539256 *  2.0876662 *
   3 H       2.0423337 *  1.0333149 *  0.0000000    3.5960299    2.3963827 *
   4 CL      1.7659782 *  2.6539256 *  3.5960299    0.0000000    2.4149290 *
   5 H       1.0890995 *  2.0876662 *  2.3963827 *  2.4149290 *  0.0000000  
   6 H       2.0555322 *  1.0334755 *  1.7028994 *  2.8228420 *  2.9836830 *
   7 H       3.0810328    2.0934205 *  2.4297835 *  3.7348373    3.3981731  

                6 H          7 H     

   1 C       2.0555322 *  3.0810328  
   2 N       1.0334755 *  2.0934205 *
   3 H       1.7028994 *  2.4297835 *
   4 CL      2.8228420 *  3.7348373  
   5 H       2.9836830 *  3.3981731  
   6 H       0.0000000    2.4090555 *
   7 H       2.4090555 *  0.0000000  

  * ... LESS THAN  3.000

 ...... END OF ONE-ELECTRON INTEGRALS ......
 STEP CPU TIME =     0.02 TOTAL CPU TIME =          0.9 (      0.0 MIN)
 TOTAL WALL CLOCK TIME=          0.9 SECONDS, CPU UTILIZATION IS    94.44%
 TOTAL NUMBER OF NONZERO TWO-ELECTRON INTEGRALS =               34301
          3 INTEGRAL RECORDS WERE STORED ON DISK FILE  8.
  ...... END OF TWO-ELECTRON INTEGRALS .....
 STEP CPU TIME =     0.01 TOTAL CPU TIME =          0.9 (      0.0 MIN)
 TOTAL WALL CLOCK TIME=          0.9 SECONDS, CPU UTILIZATION IS    94.51%

          --------------------------
                 RHF SCF CALCULATION
          --------------------------
     DENSITY MATRIX CONV=  1.00E-05

 ITER EX DEM     TOTAL ENERGY        E CHANGE  DENSITY CHANGE     ORB. GRAD
          ---------------START SECOND ORDER SCF---------------
   1  0  0     -547.7014686985  -547.7014686985   0.039622295   0.006503806
   2  1  0     -547.7021307545    -0.0006620560   0.014858281   0.004707493
   3  2  0     -547.7023143987    -0.0001836441   0.003898259   0.001980538
   4  3  0     -547.7023474676    -0.0000330689   0.001745158   0.000463555
   5  4  0     -547.7023496276    -0.0000021600   0.000631643   0.000192685
   6  5  0     -547.7023499583    -0.0000003307   0.000153964   0.000041935
   7  6  0     -547.7023499805    -0.0000000222   0.000035380   0.000008426
   8  7  0     -547.7023499821    -0.0000000016   0.000014496   0.000003701
   9  8  0     -547.7023499823    -0.0000000002   0.000003468   0.000000846
  10  9  0     -547.7023499823    -0.0000000000   0.000000758   0.000000230

          -----------------
          DENSITY CONVERGED
          -----------------
     TIME TO FORM FOCK OPERATORS=       0.0 SECONDS (       0.0 SEC/ITER)
     TIME TO SOLVE SCF EQUATIONS=       0.0 SECONDS (       0.0 SEC/ITER)

 FINAL RHF ENERGY IS     -547.7023499823 AFTER  10 ITERATIONS
 ...... END OF RHF CALCULATION ......
 STEP CPU TIME =     0.04 TOTAL CPU TIME =          0.9 (      0.0 MIN)
 TOTAL WALL CLOCK TIME=          1.0 SECONDS, CPU UTILIZATION IS    92.78%
 ..... END OF 1-ELECTRON GRADIENT ......
 STEP CPU TIME =     0.01 TOTAL CPU TIME =          0.9 (      0.0 MIN)
 TOTAL WALL CLOCK TIME=          1.0 SECONDS, CPU UTILIZATION IS    93.81%
 ...... END OF 2-ELECTRON GRADIENT ......
 STEP CPU TIME =     0.02 TOTAL CPU TIME =          0.9 (      0.0 MIN)
 TOTAL WALL CLOCK TIME=          1.0 SECONDS, CPU UTILIZATION IS    93.94%

          NSERCH=  1     ENERGY=    -547.7023500

                                 -----------------------
                                 GRADIENT (HARTREE/BOHR)
                                 -----------------------
        ATOM     ZNUC       DE/DX         DE/DY         DE/DZ
 --------------------------------------------------------------
    1  C            6.0     0.0020683     0.0017050    -0.0002312
    2  N            7.0    -0.0293366    -0.0087778    -0.0599810
    3  H            1.0    -0.0001612     0.0003252    -0.0002230
    4  CL          17.0     0.0002661    -0.0005663    -0.0001629
    5  H            1.0    -0.0005592    -0.0001913     0.0005263
    6  H            1.0     0.0000543    -0.0002349    -0.0001243
    7  H            1.0     0.0276684     0.0077402     0.0601961


                     --------------------
                     INTERNAL COORDINATES
                     --------------------

                 - - ATOMS - -         COORDINATE        GRADIENT
 NO.   TYPE    I  J  K  L  M  N         (ANG,DEG)     (H/B,H/RAD)
 ----------------------------------------------------------------
   1 SYM.CRD.                           0.6180873       0.0041985
   2 SYM.CRD.                           0.1291101       0.0037080
   3 SYM.CRD.                          -1.3092962       0.0015366
   4 SYM.CRD.                           0.0734301       0.0000215
   5 SYM.CRD.                          -0.4146455       0.0060563
   6 SYM.CRD.                           0.4838653       0.0286438
   7 SYM.CRD.                          -2.3045903      -0.0248721
   8 SYM.CRD.                          -1.2161663       0.0208071
   9 SYM.CRD.                           1.1072512       0.0250648
  10 SYM.CRD.                          -0.6399599      -0.0258503
  11 SYM.CRD.                           0.7082704       0.0060982
  12 SYM.CRD.                          -1.1646243      -0.0051159
  13 SYM.CRD.                          -0.8140457      -0.0234628
  14 SYM.CRD.                          -0.6075942      -0.0098862
  15 SYM.CRD.                          -0.5249680      -0.0224551

 NOTE: CARTESIAN GRADIENTS ARE ALWAYS TAKEN TO TEST CONVERGENCE,
       SO THE FOLLOWING GRADIENTS ARE CARTESIAN.

          MAXIMUM GRADIENT = 0.0601961    RMS GRADIENT = 0.0206939

 NSERCH:   1  E=     -547.7023499823  GRAD. MAX=  0.0601961  R.M.S.=  0.0206939

          HESSIAN UPDATED USING THE POWELL FORMULA
             ACTUAL ENERGY CHANGE WAS   0.0124756294
          PREDICTED ENERGY CHANGE WAS   0.0124432850 RATIO=  1.003
          OVERLAP OF CURRENT MODE   1 WITH PREVIOUS MODE IS     0.999522
          FOLLOWING MODE  1 WITH EIGENVALUE   -0.04031 AND COMPONENTS
              0.08767  0.05834  0.00521  0.00484  0.06483  0.39847
             -0.36145  0.28190  0.31554 -0.30372  0.04117 -0.00731
             -0.33758 -0.16980 -0.52860
          TS SEARCH, CORRECT HESSIAN, TRYING PURE NR STEP
               NR STEP HAS LENGTH         =   1.692229
          TRIM/QA LAMBDA FOR     TS MODE  =   0.18235427
          TRIM/QA LAMBDA FOR NON-TS MODES =  -0.18235427
          TRIM/QA STEP HAS LENGTH         =   0.300000
          RADIUS OF STEP TAKEN=   0.30000  CURRENT TRUST RADIUS=   0.30000
          TRANSFORMING DISPLACEMENT FROM INTERNALS TO CARTESIANS
          THE ROOT MEAN SQUARE ERROR IN ITERATION   1 IS   0.00320151
          THE ROOT MEAN SQUARE ERROR IN ITERATION   2 IS   0.00000270
          THE ROOT MEAN SQUARE ERROR IN ITERATION   3 IS   0.00000000

 BEGINNING GEOMETRY SEARCH POINT NSERCH=   2 ...

 COORDINATES OF ALL ATOMS ARE (ANGS)
   ATOM   CHARGE       X              Y              Z
 ------------------------------------------------------------
 C           6.0  -3.8855175662  -0.2133515378  -0.2065210320
 N           7.0  -2.6702931252   0.4160505470  -0.0427903436
 H           1.0  -1.8635617973  -0.0706511626  -0.4621481655
 CL         17.0  -5.2693263839   0.6360341956   0.4654243236
 H           1.0  -3.8877987020  -1.2871304059  -0.0305222478
 H           1.0  -2.6500717416   1.4291975346  -0.2358943413
 H           1.0  -1.7267009784   0.6480087917   1.9684029042


                     --------------------
                     INTERNAL COORDINATES
                     --------------------

                 - - ATOMS - -         COORDINATE      COORDINATE
 NO.   TYPE    I  J  K  L  M  N        (BOHR,RAD)       (ANG,DEG)
 ----------------------------------------------------------------
   1 STRETCH   1  4                     3.3207027       1.7572403
   2 STRETCH   1  2                     2.6046191       1.3783052
   3 STRETCH   1  5                     2.0562284       1.0881093
   4 STRETCH   2  7                     4.2209343       2.2336224
   5 STRETCH   2  6                     1.9494105       1.0315837
   6 STRETCH   2  3                     1.9488518       1.0312880
   7 BEND      1  2  3                  2.0107371     115.2067500
   8 BEND      1  2  6                  2.0303344     116.3295911
   9 BEND      1  2  7                  2.1256857     121.7928213
  10 BEND      2  1  4                  2.0132547     115.3509975
  11 BEND      2  1  5                  2.0189135     115.6752244
  12 BEND      3  2  7                  1.6555856      94.8580655
  13 BEND      3  2  6                  1.9520113     111.8420093
  14 BEND      4  1  5                  1.9970873     114.4246754
  15 BEND      6  2  7                  1.6291068      93.3409414
  16 TORSION   3  2  1  4              -3.1115154    -178.2766974
  17 TORSION   3  2  1  5               0.7745410      44.3779323
  18 TORSION   4  1  2  6              -0.7768191     -44.5084559
  19 TORSION   4  1  2  7               1.1872898      68.0266970
  20 TORSION   5  1  2  7              -1.2098391     -69.3186732
  21 TORSION   5  1  2  6               3.1092373     178.1461739

          INTERNUCLEAR DISTANCES (ANGS.)
          ------------------------------

                1 C          2 N          3 H          4 CL         5 H     

   1 C       0.0000000    1.3783052 *  2.0430403 *  1.7572403 *  1.0881093 *
   2 N       1.3783052 *  0.0000000    1.0312880 *  2.6573763 *  2.0936322 *
   3 H       2.0430403 *  1.0312880 *  0.0000000    3.5998649    2.4007619 *
   4 CL      1.7572403 *  2.6573763 *  3.5998649    0.0000000    2.4193271 *
   5 H       1.0881093 *  2.0936322 *  2.4007619 *  2.4193271 *  0.0000000  
   6 H       2.0555186 *  1.0315837 *  1.7086061 *  2.8251462 *  2.9920868 *
   7 H       3.1831941    2.2336224 *  2.5382635 *  3.8482831    3.5228978  

                6 H          7 H     

   1 C       2.0555186 *  3.1831941  
   2 N       1.0315837 *  2.2336224 *
   3 H       1.7086061 *  2.5382635 *
   4 CL      2.8251462 *  3.8482831  
   5 H       2.9920868 *  3.5228978  
   6 H       0.0000000    2.5143182 *
   7 H       2.5143182 *  0.0000000  

  * ... LESS THAN  3.000

 ...... END OF ONE-ELECTRON INTEGRALS ......
 STEP CPU TIME =     0.01 TOTAL CPU TIME =          0.9 (      0.0 MIN)
 TOTAL WALL CLOCK TIME=          1.0 SECONDS, CPU UTILIZATION IS    93.07%
 TOTAL NUMBER OF NONZERO TWO-ELECTRON INTEGRALS =               34278
          3 INTEGRAL RECORDS WERE STORED ON DISK FILE  8.
  ...... END OF TWO-ELECTRON INTEGRALS .....
 STEP CPU TIME =     0.02 TOTAL CPU TIME =          1.0 (      0.0 MIN)
 TOTAL WALL CLOCK TIME=          1.0 SECONDS, CPU UTILIZATION IS    93.20%

          --------------------------
                 RHF SCF CALCULATION
          --------------------------
     DENSITY MATRIX CONV=  1.00E-05

 ITER EX DEM     TOTAL ENERGY        E CHANGE  DENSITY CHANGE     ORB. GRAD
          ---------------START SECOND ORDER SCF---------------
   1  0  0     -547.6844703647  -547.6844703647   0.053576154   0.008102771
   2  1  0     -547.6856721807    -0.0012018161   0.021173496   0.005730815
   3  2  0     -547.6860018811    -0.0003297004   0.005918969   0.002996441
   4  3  0     -547.6860775934    -0.0000757123   0.002275459   0.000627946
   5  4  0     -547.6860811881    -0.0000035947   0.000888673   0.000275107
   6  5  0     -547.6860818670    -0.0000006789   0.000182003   0.000045182
   7  6  0     -547.6860819017    -0.0000000347   0.000049023   0.000010475
   8  7  0     -547.6860819045    -0.0000000028   0.000018557   0.000004448
   9  8  0     -547.6860819048    -0.0000000003   0.000004863   0.000001161
  10  9  0     -547.6860819049    -0.0000000000   0.000000989   0.000000321

          -----------------
          DENSITY CONVERGED
          -----------------
     TIME TO FORM FOCK OPERATORS=       0.0 SECONDS (       0.0 SEC/ITER)
     TIME TO SOLVE SCF EQUATIONS=       0.0 SECONDS (       0.0 SEC/ITER)

 FINAL RHF ENERGY IS     -547.6860819049 AFTER  10 ITERATIONS
 ...... END OF RHF CALCULATION ......
 STEP CPU TIME =     0.04 TOTAL CPU TIME =          1.0 (      0.0 MIN)
 TOTAL WALL CLOCK TIME=          1.1 SECONDS, CPU UTILIZATION IS    94.34%
 ..... END OF 1-ELECTRON GRADIENT ......
 STEP CPU TIME =     0.00 TOTAL CPU TIME =          1.0 (      0.0 MIN)
 TOTAL WALL CLOCK TIME=          1.1 SECONDS, CPU UTILIZATION IS    93.46%
 ...... END OF 2-ELECTRON GRADIENT ......
 STEP CPU TIME =     0.02 TOTAL CPU TIME =          1.0 (      0.0 MIN)
 TOTAL WALL CLOCK TIME=          1.1 SECONDS, CPU UTILIZATION IS    93.58%

          NSERCH=  2     ENERGY=    -547.6860819

                                 -----------------------
                                 GRADIENT (HARTREE/BOHR)
                                 -----------------------
        ATOM     ZNUC       DE/DX         DE/DY         DE/DZ
 --------------------------------------------------------------
    1  C            6.0     0.0042138     0.0033595     0.0001076
    2  N            7.0    -0.0275474    -0.0080572    -0.0505422
    3  H            1.0    -0.0002723     0.0006482    -0.0005040
    4  CL          17.0     0.0007798    -0.0011528    -0.0003609
    5  H            1.0    -0.0010397    -0.0001922     0.0007790
    6  H            1.0     0.0001932    -0.0003777    -0.0002791
    7  H            1.0     0.0236726     0.0057722     0.0507996


                     --------------------
                     INTERNAL COORDINATES
                     --------------------

                 - - ATOMS - -         COORDINATE        GRADIENT
 NO.   TYPE    I  J  K  L  M  N         (ANG,DEG)     (H/B,H/RAD)
 ----------------------------------------------------------------
   1 SYM.CRD.                           0.6336928       0.0025788
   2 SYM.CRD.                           0.1403186       0.0026127
   3 SYM.CRD.                          -1.3088365       0.0019831
   4 SYM.CRD.                           0.0737518      -0.0000471
   5 SYM.CRD.                          -0.4080037       0.0058429
   6 SYM.CRD.                           0.5373653       0.0250515
   7 SYM.CRD.                          -2.3570568      -0.0199069
   8 SYM.CRD.                          -1.1799758       0.0184152
   9 SYM.CRD.                           1.1457674       0.0202696
  10 SYM.CRD.                          -0.6720135      -0.0209129
  11 SYM.CRD.                           0.7058060       0.0054364
  12 SYM.CRD.                          -1.1540343      -0.0038730
  13 SYM.CRD.                          -0.8626707      -0.0215787
  14 SYM.CRD.                          -0.6357039      -0.0083248
  15 SYM.CRD.                          -0.6348795      -0.0189206

 NOTE: CARTESIAN GRADIENTS ARE ALWAYS TAKEN TO TEST CONVERGENCE,
       SO THE FOLLOWING GRADIENTS ARE CARTESIAN.

          MAXIMUM GRADIENT = 0.0507996    RMS GRADIENT = 0.0177099

 NSERCH:   2  E=     -547.6860819049  GRAD. MAX=  0.0507996  R.M.S.=  0.0177099

          HESSIAN UPDATED USING THE POWELL FORMULA
             ACTUAL ENERGY CHANGE WAS   0.0162680775
          PREDICTED ENERGY CHANGE WAS   0.0160598627 RATIO=  1.013
          OVERLAP OF CURRENT MODE   1 WITH PREVIOUS MODE IS     0.999379
          FOLLOWING MODE  1 WITH EIGENVALUE   -0.03443 AND COMPONENTS
              0.09538  0.05335  0.00329  0.01769  0.04670  0.39578
             -0.36637  0.27642  0.31318 -0.31554  0.04245 -0.01834
             -0.32552 -0.18340 -0.52810
          TS SEARCH, CORRECT HESSIAN, TRYING PURE NR STEP
               NR STEP HAS LENGTH         =   1.646049
          TRIM/QA LAMBDA FOR     TS MODE  =   0.15343304
          TRIM/QA LAMBDA FOR NON-TS MODES =  -0.15343304
          TRIM/QA STEP HAS LENGTH         =   0.300000
          RADIUS OF STEP TAKEN=   0.30000  CURRENT TRUST RADIUS=   0.30000
          TRANSFORMING DISPLACEMENT FROM INTERNALS TO CARTESIANS
          THE ROOT MEAN SQUARE ERROR IN ITERATION   1 IS   0.00305515
          THE ROOT MEAN SQUARE ERROR IN ITERATION   2 IS   0.00000154
          THE ROOT MEAN SQUARE ERROR IN ITERATION   3 IS   0.00000000

 BEGINNING GEOMETRY SEARCH POINT NSERCH=   3 ...

 COORDINATES OF ALL ATOMS ARE (ANGS)
   ATOM   CHARGE       X              Y              Z
 ------------------------------------------------------------
 C           6.0  -3.8842139280  -0.2105479720  -0.1874151577
 N           7.0  -2.6696758012   0.4166658698  -0.0582724591
 H           1.0  -1.8609843718  -0.0701649460  -0.4690776464
 CL         17.0  -5.2726381538   0.6354069832   0.4625394340
 H           1.0  -3.8931649007  -1.2906081766  -0.0610305757
 H           1.0  -2.6437733184   1.4344599092  -0.2133193997
 H           1.0  -1.6394005219   0.6255694857   2.0709872776


                     --------------------
                     INTERNAL COORDINATES
                     --------------------

                 - - ATOMS - -         COORDINATE      COORDINATE
 NO.   TYPE    I  J  K  L  M  N        (BOHR,RAD)       (ANG,DEG)
 ----------------------------------------------------------------
   1 STRETCH   1  4                     3.3088031       1.7509433
   2 STRETCH   1  2                     2.5946274       1.3730178
   3 STRETCH   1  5                     2.0550136       1.0874664
   4 STRETCH   2  7                     4.4873950       2.3746273
   5 STRETCH   2  6                     1.9461565       1.0298617
   6 STRETCH   2  3                     1.9453598       1.0294401
   7 BEND      1  2  3                  2.0278717     116.1884887
   8 BEND      1  2  6                  2.0482837     117.3580133
   9 BEND      1  2  7                  2.1040237     120.5516808
  10 BEND      2  1  4                  2.0328759     116.4752090
  11 BEND      2  1  5                  2.0376206     116.7470578
  12 BEND      3  2  7                  1.6294246      93.3591527
  13 BEND      3  2  6                  1.9687474     112.8009168
  14 BEND      4  1  5                  2.0154931     115.4792491
  15 BEND      6  2  7                  1.6079450      92.1284639
  16 TORSION   3  2  1  4              -3.1079282    -178.0711668
  17 TORSION   3  2  1  5               0.6950067      39.8209484
  18 TORSION   4  1  2  6              -0.7029878     -40.2782343
  19 TORSION   4  1  2  7               1.2296234      70.4522301
  20 TORSION   5  1  2  7              -1.2506271     -71.6556546
  21 TORSION   5  1  2  6               3.0999470     177.6138810

          INTERNUCLEAR DISTANCES (ANGS.)
          ------------------------------

                1 C          2 N          3 H          4 CL         5 H     

   1 C       0.0000000    1.3730178 *  2.0475593 *  1.7509433 *  1.0874664 *
   2 N       1.3730178 *  0.0000000    1.0294401 *  2.6635513 *  2.1004090 *
   3 H       2.0475593 *  1.0294401 *  0.0000000    3.6062617    2.4053569 *
   4 CL      1.7509433 *  2.6635513 *  3.6062617    0.0000000    2.4262330 *
   5 H       1.0874664 *  2.1004090 *  2.4053569 *  2.4262330 *  0.0000000  
   6 H       2.0604405 *  1.0298617 *  1.7152454 *  2.8295231 *  3.0016941  
   7 H       3.2922122    2.3746273 *  2.6429294 *  3.9733634    3.6464628  

                6 H          7 H     

   1 C       2.0604405 *  3.2922122  
   2 N       1.0298617 *  2.3746273 *
   3 H       1.7152454 *  2.6429294 *
   4 CL      2.8295231 *  3.9733634  
   5 H       3.0016941    3.6464628  
   6 H       0.0000000    2.6231899 *
   7 H       2.6231899 *  0.0000000  

  * ... LESS THAN  3.000

 ...... END OF ONE-ELECTRON INTEGRALS ......
 STEP CPU TIME =     0.02 TOTAL CPU TIME =          1.0 (      0.0 MIN)
 TOTAL WALL CLOCK TIME=          1.1 SECONDS, CPU UTILIZATION IS    93.69%
 TOTAL NUMBER OF NONZERO TWO-ELECTRON INTEGRALS =               34228
          3 INTEGRAL RECORDS WERE STORED ON DISK FILE  8.
  ...... END OF TWO-ELECTRON INTEGRALS .....
 STEP CPU TIME =     0.02 TOTAL CPU TIME =          1.1 (      0.0 MIN)
 TOTAL WALL CLOCK TIME=          1.1 SECONDS, CPU UTILIZATION IS    94.64%

          --------------------------
                 RHF SCF CALCULATION
          --------------------------
     DENSITY MATRIX CONV=  1.00E-05

 ITER EX DEM     TOTAL ENERGY        E CHANGE  DENSITY CHANGE     ORB. GRAD
          ---------------START SECOND ORDER SCF---------------
   1  0  0     -547.6710547135  -547.6710547135   0.045950659   0.006862326
   2  1  0     -547.6719428463    -0.0008881328   0.023258676   0.005605717
   3  2  0     -547.6721864604    -0.0002436141   0.006154805   0.002907732
   4  3  0     -547.6722646503    -0.0000781899   0.001933797   0.000549837
   5  4  0     -547.6722671822    -0.0000025319   0.000750321   0.000238495
   6  5  0     -547.6722677396    -0.0000005574   0.000156809   0.000036302
   7  6  0     -547.6722677612    -0.0000000216   0.000044287   0.000010106
   8  7  0     -547.6722677631    -0.0000000019   0.000012652   0.000002961
   9  8  0     -547.6722677633    -0.0000000002   0.000004424   0.000000905
  10  9  0     -547.6722677633    -0.0000000000   0.000000783   0.000000287

          -----------------
          DENSITY CONVERGED
          -----------------
     TIME TO FORM FOCK OPERATORS=       0.0 SECONDS (       0.0 SEC/ITER)
     TIME TO SOLVE SCF EQUATIONS=       0.0 SECONDS (       0.0 SEC/ITER)

 FINAL RHF ENERGY IS     -547.6722677633 AFTER  10 ITERATIONS
 ...... END OF RHF CALCULATION ......
 STEP CPU TIME =     0.03 TOTAL CPU TIME =          1.1 (      0.0 MIN)
 TOTAL WALL CLOCK TIME=          1.2 SECONDS, CPU UTILIZATION IS    87.20%
 ..... END OF 1-ELECTRON GRADIENT ......
 STEP CPU TIME =     0.01 TOTAL CPU TIME =          1.1 (      0.0 MIN)
 TOTAL WALL CLOCK TIME=          1.3 SECONDS, CPU UTILIZATION IS    87.30%
 ...... END OF 2-ELECTRON GRADIENT ......
 STEP CPU TIME =     0.01 TOTAL CPU TIME =          1.1 (      0.0 MIN)
 TOTAL WALL CLOCK TIME=          1.3 SECONDS, CPU UTILIZATION IS    86.72%

          NSERCH=  3     ENERGY=    -547.6722678

                                 -----------------------
                                 GRADIENT (HARTREE/BOHR)
                                 -----------------------
        ATOM     ZNUC       DE/DX         DE/DY         DE/DZ
 --------------------------------------------------------------
    1  C            6.0     0.0030961     0.0027242     0.0004799
    2  N            7.0    -0.0231856    -0.0057187    -0.0426006
    3  H            1.0    -0.0003074     0.0007135    -0.0005668
    4  CL          17.0     0.0006162    -0.0011208    -0.0005392
    5  H            1.0    -0.0010732    -0.0003173     0.0006078
    6  H            1.0     0.0003002    -0.0003668    -0.0002391
    7  H            1.0     0.0205537     0.0040859     0.0428580


                     --------------------
                     INTERNAL COORDINATES
                     --------------------

                 - - ATOMS - -         COORDINATE        GRADIENT
 NO.   TYPE    I  J  K  L  M  N         (ANG,DEG)     (H/B,H/RAD)
 ----------------------------------------------------------------
   1 SYM.CRD.                           0.6513638       0.0026671
   2 SYM.CRD.                           0.1509127       0.0020381
   3 SYM.CRD.                          -1.3078446       0.0009090
   4 SYM.CRD.                           0.0777959      -0.0000317
   5 SYM.CRD.                          -0.4069012       0.0047308
   6 SYM.CRD.                           0.5895281       0.0213223
   7 SYM.CRD.                          -2.4116680      -0.0169851
   8 SYM.CRD.                          -1.1461191       0.0158712
   9 SYM.CRD.                           1.1847763       0.0170063
  10 SYM.CRD.                          -0.7089227      -0.0177019
  11 SYM.CRD.                           0.7040580       0.0045585
  12 SYM.CRD.                          -1.1473801      -0.0032690
  13 SYM.CRD.                          -0.9074113      -0.0178228
  14 SYM.CRD.                          -0.6679212      -0.0069674
  15 SYM.CRD.                          -0.7441448      -0.0161849

 NOTE: CARTESIAN GRADIENTS ARE ALWAYS TAKEN TO TEST CONVERGENCE,
       SO THE FOLLOWING GRADIENTS ARE CARTESIAN.

          MAXIMUM GRADIENT = 0.0428580    RMS GRADIENT = 0.0149332

 NSERCH:   3  E=     -547.6722677633  GRAD. MAX=  0.0428580  R.M.S.=  0.0149332

          HESSIAN UPDATED USING THE POWELL FORMULA
             ACTUAL ENERGY CHANGE WAS   0.0138141415
          PREDICTED ENERGY CHANGE WAS   0.0136190977 RATIO=  1.014
          OVERLAP OF CURRENT MODE   1 WITH PREVIOUS MODE IS     0.999458
          FOLLOWING MODE  1 WITH EIGENVALUE   -0.02834 AND COMPONENTS
              0.10023  0.04926  0.00369  0.03138  0.02983  0.39129
             -0.36573  0.26755  0.30745 -0.32075  0.04225 -0.02569
             -0.31789 -0.19911 -0.53539
          TS SEARCH, CORRECT HESSIAN, TRYING PURE NR STEP
               NR STEP HAS LENGTH         =   1.671536
          TRIM/QA LAMBDA FOR     TS MODE  =   0.13030269
          TRIM/QA LAMBDA FOR NON-TS MODES =  -0.13030269
          TRIM/QA STEP HAS LENGTH         =   0.300000
          RADIUS OF STEP TAKEN=   0.30000  CURRENT TRUST RADIUS=   0.30000
          TRANSFORMING DISPLACEMENT FROM INTERNALS TO CARTESIANS
          THE ROOT MEAN SQUARE ERROR IN ITERATION   1 IS   0.00293389
          THE ROOT MEAN SQUARE ERROR IN ITERATION   2 IS   0.00000168
          THE ROOT MEAN SQUARE ERROR IN ITERATION   3 IS   0.00000000

[...]
   9 BEND      1  2  7                  1.8642433     106.8132724
  10 BEND      2  1  4                  1.8361463     105.2034316
  11 BEND      2  1  5                  1.8813124     107.7912584
  12 BEND      3  2  7                  1.7143694      98.2261314
  13 BEND      3  2  6                  2.0152049     115.4627366
  14 BEND      4  1  5                  2.3508079     134.6913712
  15 BEND      6  2  7                  1.7163153      98.3376213
  16 TORSION   3  2  1  4              -3.0374114    -174.0308533
  17 TORSION   3  2  1  5               0.6540260      37.4729317
  18 TORSION   4  1  2  6              -0.5508157     -31.5594163
  19 TORSION   4  1  2  7               1.3256249      75.9527102
  20 TORSION   5  1  2  7              -1.2661230     -72.5435048
  21 TORSION   5  1  2  6               3.1406217     179.9443688

          INTERNUCLEAR DISTANCES (ANGS.)
          ------------------------------

                1 C          2 N          3 H          4 CL         5 H     

   1 C       0.0000000    1.5676589 *  2.2625313 *  1.7660363 *  1.0685336 *
   2 N       1.5676589 *  0.0000000    1.0335129 *  2.6511361 *  2.1501093 *
   3 H       2.2625313 *  1.0335129 *  0.0000000    3.6347639    2.4825282 *
   4 CL      1.7660363 *  2.6511361 *  3.6347639    0.0000000    2.6296298 *
   5 H       1.0685336 *  2.1501093 *  2.4825282 *  2.6296298 *  0.0000000  
   6 H       2.2036846 *  1.0361311 *  1.7499968 *  2.6591591 *  3.0368779  
   7 H       2.1248731 *  1.0509256 *  1.5758825 *  2.9215326 *  2.5029806 *

                6 H          7 H     

   1 C       2.2036846 *  2.1248731 *
   2 N       1.0361311 *  1.0509256 *
   3 H       1.7499968 *  1.5758825 *
   4 CL      2.6591591 *  2.9215326 *
   5 H       3.0368779    2.5029806 *
   6 H       0.0000000    1.5791786 *
   7 H       1.5791786 *  0.0000000  

  * ... LESS THAN  3.000


          NUCLEAR ENERGY    =      102.1406425652
          ELECTRONIC ENERGY =        0.0000000000
          TOTAL ENERGY      =        0.0000000000

          ------------------
          MOLECULAR ORBITALS
          ------------------

                      1          2          3          4          5
                 -103.5385   -15.5244   -10.8714   -10.2412    -7.6834
                     A          A          A          A          A   
    1  C  1  S   -0.000052  -0.000376   0.992519   0.001954   0.001333
    2  C  1  S    0.000354   0.003136   0.032172  -0.007361  -0.010310
    3  C  1  X   -0.000255   0.002516   0.001789   0.004896   0.006345
    4  C  1  Y    0.000224   0.001630  -0.000173  -0.004206  -0.005526
    5  C  1  Z    0.000132   0.000296   0.003721  -0.002527  -0.003628
    6  N  2  S    0.000002  -0.993365   0.000537  -0.000020   0.000000
    7  N  2  S   -0.000039  -0.031846  -0.004060   0.000670   0.000521
    8  N  2  X   -0.000004  -0.001847   0.003093   0.000240   0.000109
    9  N  2  Y   -0.000005  -0.001055   0.002060   0.000051  -0.000146
   10  N  2  Z   -0.000001  -0.002198   0.000441  -0.000028  -0.000070
   11  H  3  S    0.000007   0.006022  -0.000161  -0.000146  -0.000153
   12  CL 4  S    0.994486  -0.000003   0.000215  -0.376807   0.004115
   13  CL 4  S    0.015798  -0.000003  -0.000681   1.052628  -0.011713
   14  CL 4  X    0.000084   0.000015   0.000339   0.007243   0.731093
   15  CL 4  Y   -0.000066   0.000003  -0.000286  -0.005113  -0.591274
   16  CL 4  Z   -0.000036   0.000001  -0.000137  -0.002074  -0.302377
   17  CL 4  S   -0.001867  -0.000213  -0.004377   0.046244   0.005519
   18  CL 4  X   -0.000168  -0.000178  -0.003108   0.003986   0.035587
   19  CL 4  Y    0.000135  -0.000002   0.002606  -0.003102  -0.028864
   20  CL 4  Z    0.000087   0.000018   0.001344  -0.001890  -0.015228
   21  H  5  S    0.000029  -0.000269  -0.007191  -0.000441  -0.000419
   22  H  6  S    0.000047   0.006016  -0.000176  -0.000969  -0.000481
   23  H  7  S    0.000018   0.005870  -0.000695  -0.000391  -0.000245

                      6          7          8          9         10
                   -7.6790    -7.6783    -1.2420    -0.9662    -0.7458
                     A          A          A          A          A   
    1  C  1  S   -0.000071  -0.000046   0.038097   0.090782  -0.151347
    2  C  1  S    0.000507   0.000481  -0.083774  -0.241926   0.461023
    3  C  1  X   -0.001981  -0.001371  -0.028543   0.048219   0.116049
    4  C  1  Y   -0.002385   0.001539  -0.020384  -0.045295  -0.069278
    5  C  1  Z    0.000006  -0.002521  -0.015515  -0.057609   0.057522
    6  N  2  S   -0.000015  -0.000007   0.222394  -0.026578  -0.003372
    7  N  2  S    0.000689   0.000117  -0.766530   0.097606   0.026457
    8  N  2  X    0.000557   0.000124  -0.060481   0.116503  -0.201619
    9  N  2  Y   -0.000198  -0.000189  -0.034850   0.034401  -0.413637
   10  N  2  Z   -0.000251   0.000116  -0.075650   0.010223  -0.016478
   11  H  3  S   -0.000175  -0.000021  -0.129815   0.063206  -0.014540
   12  CL 4  S    0.000249   0.000234  -0.005617  -0.080745  -0.031247
   13  CL 4  S   -0.000705  -0.000665   0.018947   0.267257   0.101281
   14  CL 4  X    0.633546   0.202881   0.006732   0.030970  -0.023861
   15  CL 4  Y    0.758204  -0.230406  -0.002295  -0.018957   0.024163
   16  CL 4  Z    0.049080   0.940482  -0.001623  -0.008057   0.010550
   17  CL 4  S    0.000044  -0.000343  -0.053229  -0.868684  -0.372860
   18  CL 4  X    0.026364   0.008094  -0.017341  -0.092120   0.071779
   19  CL 4  Y    0.031696  -0.009303   0.005800   0.052789  -0.074083
   20  CL 4  Z    0.002078   0.039223   0.004033   0.020232  -0.032906
   21  H  5  S   -0.000586   0.000620  -0.016155  -0.054285   0.251403
   22  H  6  S   -0.001249   0.000180  -0.127381   0.022872  -0.248853
   23  H  7  S   -0.000361  -0.000476  -0.133496   0.024167   0.022297

                     11         12         13         14         15
                   -0.7190    -0.6584    -0.5163    -0.4218    -0.3519
                     A          A          A          A          A   
    1  C  1  S    0.042529  -0.049388   0.072388   0.044345   0.020233
    2  C  1  S   -0.133113   0.165698  -0.228893  -0.186983  -0.075654
    3  C  1  X   -0.029333   0.014764   0.124006   0.299822   0.028046
    4  C  1  Y   -0.033816   0.003454   0.327789  -0.272010   0.013933
    5  C  1  Z   -0.020527  -0.068337  -0.058519  -0.027461   0.290698
    6  N  2  S    0.005355  -0.026108  -0.058048  -0.019021   0.002562
    7  N  2  S   -0.029417   0.118357   0.287886   0.093034  -0.013390
    8  N  2  X    0.491409  -0.017987  -0.398002  -0.153771   0.014917
    9  N  2  Y   -0.350725   0.147524  -0.370394  -0.031886   0.010067
   10  N  2  Z   -0.116974  -0.629399  -0.154339  -0.046670  -0.066628
   11  H  3  S    0.414666   0.163151  -0.057863  -0.096928   0.050295
   12  CL 4  S    0.020790  -0.005615   0.004711   0.019068  -0.003278
   13  CL 4  S   -0.067398   0.017958  -0.014917  -0.058300   0.010288
   14  CL 4  X    0.025321  -0.005922  -0.011486   0.134490  -0.122745
   15  CL 4  Y   -0.003105   0.005975  -0.056098  -0.118871   0.058572
   16  CL 4  Z   -0.007434   0.014127  -0.000043  -0.106622  -0.228227
   17  CL 4  S    0.248686  -0.070685   0.062424   0.279207  -0.044179
   18  CL 4  X   -0.079802   0.017572   0.042026  -0.449002   0.433724
   19  CL 4  Y    0.007413  -0.018305   0.189748   0.398460  -0.205709
   20  CL 4  Z    0.023045  -0.045938  -0.000410   0.361168   0.813353
   21  H  5  S   -0.032669   0.063926  -0.396161   0.246090  -0.037553
   22  H  6  S   -0.298901   0.182258  -0.175971   0.049207   0.011519
   23  H  7  S   -0.018128  -0.480146  -0.056075  -0.029354  -0.062463

                     16         17         18         19         20
                   -0.3270    -0.1287     0.4410     0.4810     0.5285
                     A          A          A          A          A   
    1  C  1  S    0.015002  -0.077873  -0.163792   0.084134  -0.019504
    2  C  1  S   -0.044777   0.351142   0.828452  -0.457113   0.094852
    3  C  1  X   -0.023733  -0.156699   0.002448   0.523584  -0.061019
    4  C  1  Y    0.023138   0.081091   0.355576   0.041847   0.074335
    5  C  1  Z    0.015236  -0.870825   0.303451  -0.296322   0.131490
    6  N  2  S   -0.031312   0.011439   0.101249   0.120308   0.108773
    7  N  2  S    0.160574  -0.059557  -0.641399  -0.801460  -0.741993
    8  N  2  X   -0.144695   0.057948  -0.056090  -0.214498  -0.201190
    9  N  2  Y   -0.053935   0.029354   0.073444  -0.343919   0.155306
   10  N  2  Z   -0.040901   0.067102   0.366637   0.156465  -0.821928
   11  H  3  S   -0.073740  -0.041504   0.620403   0.498639   0.178671
   12  CL 4  S    0.001168  -0.002362  -0.017893   0.013449  -0.004886
   13  CL 4  S   -0.003923   0.007628   0.051555  -0.037858   0.014022
   14  CL 4  X    0.174043  -0.008859   0.123135  -0.069912   0.030403
   15  CL 4  Y    0.217574  -0.001575  -0.081831   0.097534  -0.019780
   16  CL 4  Z   -0.033249  -0.119621  -0.051544   0.041375  -0.005059
   17  CL 4  S    0.012333  -0.030003  -0.307325   0.241578  -0.085033
   18  CL 4  X   -0.623387   0.035237  -0.497118   0.287506  -0.124930
   19  CL 4  Y   -0.778468   0.003715   0.330330  -0.394661   0.081152
   20  CL 4  Z    0.119248   0.446930   0.208589  -0.169443   0.022018
   21  H  5  S   -0.123203  -0.106106  -0.343753   0.229167  -0.027686
   22  H  6  S   -0.029056  -0.047297   0.300392   0.731105  -0.004074
   23  H  7  S   -0.013830   0.150573  -0.241750   0.044164   1.158940

                     21         22         23
                    0.5858     0.5951     0.8745
                     A          A          A   
    1  C  1  S    0.000792  -0.083110   0.081331
    2  C  1  S   -0.036432   0.438872  -0.564582
    3  C  1  X    0.602573   0.563659  -0.476907
    4  C  1  Y    0.367878   0.274490   1.013450
    5  C  1  Z   -0.080925   0.092336  -0.004517
    6  N  2  S   -0.002794   0.019314  -0.006288
    7  N  2  S    0.058506  -0.084934   0.038688
    8  N  2  X    0.006675   0.900934   0.125843
    9  N  2  Y    0.867393  -0.172518  -0.200359
   10  N  2  Z    0.125570  -0.195715  -0.006724
   11  H  3  S    0.289534  -0.844938  -0.156815
   12  CL 4  S    0.006156  -0.000083  -0.009582
   13  CL 4  S   -0.017509   0.000009   0.024947
   14  CL 4  X   -0.014679   0.014439   0.052898
   15  CL 4  Y    0.040998   0.011264  -0.024257
   16  CL 4  Z    0.016752   0.004064  -0.037131
   17  CL 4  S    0.108827  -0.004870  -0.198643
   18  CL 4  X    0.062924  -0.062272  -0.233352
   19  CL 4  Y   -0.168813  -0.046500   0.111423
   20  CL 4  Z   -0.069573  -0.016465   0.161461
   21  H  5  S    0.246522  -0.204711   1.156112
   22  H  6  S   -0.859311   0.330069   0.138778
   23  H  7  S   -0.007302   0.109052  -0.038645

     ----------------------------------------------------------------
     PROPERTY VALUES FOR THE RHF   SELF-CONSISTENT FIELD WAVEFUNCTION
     ----------------------------------------------------------------

          -----------------
          ENERGY COMPONENTS
          -----------------

         WAVEFUNCTION NORMALIZATION =       1.0000000000

                ONE ELECTRON ENERGY =    -960.3821378330
                TWO ELECTRON ENERGY =     310.8977981602
           NUCLEAR REPULSION ENERGY =     101.6481701373
                                      ------------------
                       TOTAL ENERGY =    -547.8361695354

 ELECTRON-ELECTRON POTENTIAL ENERGY =     310.8977981602
  NUCLEUS-ELECTRON POTENTIAL ENERGY =   -1500.4639307346
   NUCLEUS-NUCLEUS POTENTIAL ENERGY =     101.6481701373
                                      ------------------
             TOTAL POTENTIAL ENERGY =   -1087.9179624370
               TOTAL KINETIC ENERGY =     540.0817929016
                 VIRIAL RATIO (V/T) =       2.0143577820

          ---------------------------------------
          MULLIKEN AND LOWDIN POPULATION ANALYSES
          ---------------------------------------

     ATOMIC MULLIKEN POPULATION IN EACH MOLECULAR ORBITAL

                      1          2          3          4          5

                  2.000000   2.000000   2.000000   2.000000   2.000000

    1             0.000006  -0.000308   2.001863  -0.001051  -0.000788
    2            -0.000000   2.002478  -0.000362   0.000000   0.000000
    3             0.000000  -0.000739  -0.000001  -0.000000  -0.000000
    4             1.999994   0.000001  -0.000440   2.001060   2.000790
    5             0.000000   0.000003  -0.001049  -0.000002  -0.000001
    6             0.000000  -0.000736  -0.000002  -0.000005  -0.000001
    7             0.000000  -0.000698  -0.000010  -0.000001  -0.000000

                      6          7          8          9         10

                  2.000000   2.000000   2.000000   2.000000   2.000000

    1            -0.000038  -0.000043   0.066947   0.284433   0.646978
    2            -0.000001   0.000000   1.468459   0.071678   0.636647
    3            -0.000000  -0.000000   0.145229   0.017654   0.000365
    4             2.000042   2.000043   0.013241   1.603024   0.248643
    5             0.000000   0.000000   0.003966   0.019596   0.280398
    6            -0.000004  -0.000000   0.143138   0.001661   0.185158
    7            -0.000000  -0.000000   0.159019   0.001954   0.001811

                     11         12         13         14         15

                  2.000000   2.000000   2.000000   2.000000   2.000000

    1             0.053998   0.084821   0.589219   0.565131   0.236912
    2             1.087621   1.165057   0.770733   0.058993   0.008034
    3             0.484627   0.063972   0.008339   0.016481   0.003985
    4             0.111632   0.015343   0.098954   1.203608   1.741913
    5             0.003983   0.015336   0.459366   0.150574   0.003729
    6             0.257232   0.081272   0.065072   0.003658   0.000225
    7             0.000907   0.574199   0.008319   0.001556   0.005201

                     16         17

                  2.000000   2.000000

    1             0.008309   1.661943
    2             0.060755   0.011825
    3             0.009652   0.001804
    4             1.887000   0.284497
    5             0.031599   0.011840
    6             0.002104   0.002333
    7             0.000581   0.025756

               ----- POPULATIONS IN EACH AO -----
                             MULLIKEN      LOWDIN
              1  C  1  S      1.99309     1.98523
              2  C  1  S      1.25099     1.19673
              3  C  1  X      0.50737     0.58316
              4  C  1  Y      0.70036     0.76487
              5  C  1  Z      1.74652     1.76098
              6  N  2  S      1.99525     1.99153
              7  N  2  S      1.58839     1.33364
              8  N  2  X      1.30244     1.28734
              9  N  2  Y      1.23639     1.23060
             10  N  2  Z      1.21945     1.22655
             11  H  3  S      0.75137     0.82237
             12  CL 4  S      1.99997     1.99987
             13  CL 4  S      1.99871     1.99860
             14  CL 4  X      1.99401     1.98929
             15  CL 4  Y      1.99528     1.99145
             16  CL 4  Z      1.99852     1.99736
             17  CL 4  S      1.95078     1.90750
             18  CL 4  X      1.64374     1.64584
             19  CL 4  Y      1.71623     1.71685
             20  CL 4  Z      1.91210     1.91204
             21  H  5  S      0.97934     1.00120
             22  H  6  S      0.74111     0.81419
             23  H  7  S      0.77859     0.84281

          ----- MULLIKEN ATOMIC OVERLAP POPULATIONS -----
          (OFF-DIAGONAL ELEMENTS NEED TO BE MULTIPLIED BY 2)

             1           2           3           4           5

    1    5.4378176
    2    0.1896226   6.2339600
    3   -0.0090903   0.3305442   0.4841868
    4    0.2299524  -0.0255484   0.0010008  17.0161173
    5    0.3849863  -0.0268065   0.0002479  -0.0121300   0.6339391
    6   -0.0121539   0.3303546  -0.0220574   0.0005809   0.0015951
    7   -0.0228015   0.3097930  -0.0334647  -0.0006288  -0.0024942

             6           7

    6    0.4757536
    7   -0.0329678   0.5611569

          TOTAL MULLIKEN AND LOWDIN ATOMIC POPULATIONS
       ATOM         MULL.POP.    CHARGE          LOW.POP.     CHARGE
    1 C             6.198333   -0.198333         6.290979   -0.290979
    2 N             7.341920   -0.341920         7.069667   -0.069667
    3 H             0.751367    0.248633         0.822369    0.177631
    4 CL           17.209344   -0.209344        17.158791   -0.158791
    5 H             0.979338    0.020662         1.001197   -0.001197
    6 H             0.741105    0.258895         0.814192    0.185808
    7 H             0.778593    0.221407         0.842806    0.157194

          -------------------------------
          BOND ORDER AND VALENCE ANALYSIS     BOND ORDER THRESHOLD=0.050
          -------------------------------

                   BOND                       BOND                       BOND
  ATOM PAIR DIST  ORDER      ATOM PAIR DIST  ORDER      ATOM PAIR DIST  ORDER
    1   2  1.568  0.612        1   4  1.766  0.945        1   5  1.069  0.958
    2   3  1.034  0.909        2   6  1.036  0.905        2   7  1.051  0.935

                       TOTAL       BONDED        FREE
      ATOM            VALENCE     VALENCE     VALENCE
    1 C                 2.538       2.538       0.000
    2 N                 3.395       3.395      -0.000
    3 H                 0.938       0.938      -0.000
    4 CL                1.006       1.006       0.000
    5 H                 1.000       1.000       0.000
    6 H                 0.933       0.933      -0.000
    7 H                 0.951       0.951       0.000

          ---------------------
          ELECTROSTATIC MOMENTS
          ---------------------

 POINT   1           X           Y           Z (BOHR)    CHARGE
                -8.096004    0.762603    0.420006        0.00 (A.U.)
         DX          DY          DZ         /D/  (DEBYE)
     5.960172    1.400029    1.495224    6.302335
 ...... END OF PROPERTY EVALUATION ......
 STEP CPU TIME =     0.03 TOTAL CPU TIME =         10.9 (      0.2 MIN)
 TOTAL WALL CLOCK TIME=         12.2 SECONDS, CPU UTILIZATION IS    89.37%
  $VIB   
          IVIB=   0 IATOM=   0 ICOORD=   0 E=     -547.8361695354
 -2.529380308E-02-1.942601537E-02 1.006908806E-01 9.085534421E-04 1.741962598E-02
 -1.042131436E-01 7.512712561E-03-6.988275223E-03 3.523972651E-02 5.287482087E-03
  1.046860174E-02-2.618683969E-02 1.503160023E-02 1.397393534E-03-4.107004437E-02
 -2.190799593E-03 2.946014315E-04 3.390945329E-02-1.255745650E-03-3.165932096E-03
  1.629967224E-03
  5.960172281E+00 1.400029171E+00 1.495223523E+00
 ......END OF GEOMETRY SEARCH......
 STEP CPU TIME =     0.00 TOTAL CPU TIME =         10.9 (      0.2 MIN)
 TOTAL WALL CLOCK TIME=         12.2 SECONDS, CPU UTILIZATION IS    89.37%
               580000  WORDS OF DYNAMIC MEMORY USED
 EXECUTION OF GAMESS TERMINATED NORMALLY Wed Dec 22 06:32:12 2021
 DDI: 263640 bytes (0.3 MB / 0 MWords) used by master data server.

 ----------------------------------------
 CPU timing information for all processes
 ========================================
 0: 8.370 + 2.578 = 10.948
 ----------------------------------------
 ddikick.x: exited gracefully.
----- accounting info -----
Files used on the master node chemcompute-node-2.novalocal were:
-rw-r--r--. 1 chemcomp chemcomp      783 Dec 22 06:31 /scratch/330497/368482.F05
-rw-rw-r--. 1 chemcomp chemcomp   540048 Dec 22 06:32 /scratch/330497/368482.F08
-rw-rw-r--. 1 chemcomp chemcomp 85196800 Dec 22 06:32 /scratch/330497/368482.F10
-rw-rw-r--. 1 chemcomp chemcomp    46536 Dec 22 06:32 /scratch/330497/368482.F18
Wed Dec 22 06:32:15 UTC 2021
0.119u 0.077s 0:16.15 1.1%	0+0k 8+216io 0pf+0w
Finishing Up...
Looking for IR data...
Looking for Raman data...
vibramans not found
Looking for thermodynamics data...
Looking for UV-Vis data...
330497
